
  ___ ___ ___ _ _ _  
 |   |   |_  | | | | 
 | | | | | . | | | | 
 |__ |  _|___|_____|  1.4.0
 |___|_|             

User:   st_st159367@n0712
Date:   Sat Nov 10 13:35:58 2018
Arch:   x86_64
Pid:    15758
Python: 3.5.0
gpaw:   /opt/bwhpc/common/chem/gpaw/1.4.0/gpaw-1.4.0/lib/python3.5/site-packages/gpaw
_gpaw:  /opt/bwhpc/common/chem/gpaw/1.4.0/gpaw-1.4.0/bin/gpaw-python
ase:    /opt/bwhpc/common/chem/gpaw/1.4.0/ase-3.16.2/ase (version 3.16.2)
numpy:  /opt/bwhpc/common/numlib/python_numpy/1.14.0-python-3.5.0-mkl-2017/lib/python/numpy-1.14.0-py3.5-linux-x86_64.egg/numpy (version 1.14.0)
scipy:  /opt/bwhpc/common/numlib/python_scipy/1.1.0-python_numpy-1.14.0-python-3.5.0-mkl-2017/lib/python/scipy-1.1.0-py3.5-linux-x86_64.egg/scipy (version 1.1.0)
units:  Angstrom and eV
cores:  16

Input parameters:
  h: 0.2
  kpts: {density: 3.9}
  xc: PBE

System changes: positions, numbers, cell, pbc, initial_charges, initial_magmoms 

Initialize ...

Be-setup:
  name: Beryllium
  id: 05824862ae4eb59fd0e1af4fca8e65d4
  Z: 4
  valence: 2
  core: 2
  charge: 0.0
  file: /opt/bwhpc/common/chem/gpaw/1.4.0//gpaw-setups-0.9.20000/Be.PBE.gz
  cutoffs: 0.79(comp), 1.42(filt), 1.77(core), lmax=2
  valence states:
                energy  radius
    2s(2.00)    -5.610   0.794
    2p(0.00)    -2.018   0.794
    *s          21.602   0.794

  Using partial waves for Be as LCAO basis

Al-setup:
  name: Aluminium
  id: 0292cae29f5d6237e50f6abdd43a7bdd
  Z: 13
  valence: 3
  core: 10
  charge: 0.0
  file: /opt/bwhpc/common/chem/gpaw/1.4.0//gpaw-setups-0.9.20000/Al.PBE.gz
  cutoffs: 1.08(comp), 1.91(filt), 2.36(core), lmax=2
  valence states:
                energy  radius
    3s(2.00)    -7.753   1.085
    3p(1.00)    -2.712   1.085
    *s          19.459   1.085
    *p          24.499   1.085
    *d           0.000   1.085

  Using partial waves for Al as LCAO basis

Si-setup:
  name: Silicon
  id: ee77bee481871cc2cb65ac61239ccafa
  Z: 14
  valence: 4
  core: 10
  charge: 0.0
  file: /opt/bwhpc/common/chem/gpaw/1.4.0//gpaw-setups-0.9.20000/Si.PBE.gz
  cutoffs: 1.06(comp), 1.86(filt), 2.06(core), lmax=2
  valence states:
                energy  radius
    3s(2.00)   -10.812   1.058
    3p(2.00)    -4.081   1.058
    *s          16.399   1.058
    *p          23.130   1.058
    *d           0.000   1.058

  Using partial waves for Si as LCAO basis

O-setup:
  name: Oxygen
  id: 32ecd46bf208036f09c70b0ec9a88b78
  Z: 8
  valence: 6
  core: 2
  charge: 0.0
  file: /opt/bwhpc/common/chem/gpaw/1.4.0//gpaw-setups-0.9.20000/O.PBE.gz
  cutoffs: 0.67(comp), 1.17(filt), 0.83(core), lmax=2
  valence states:
                energy  radius
    2s(2.00)   -23.961   0.688
    2p(4.00)    -9.029   0.598
    *s           3.251   0.688
    *p          18.182   0.598
    *d           0.000   0.619

  Using partial waves for O as LCAO basis

Reference energy: -196909.616745

Spin-paired calculation

Occupation numbers:
  Fermi-Dirac: width=0.1000 eV

Convergence criteria:
  Maximum total energy change: 0.0005 eV / electron
  Maximum integral of absolute density change: 0.0001 electrons
  Maximum integral of absolute eigenstate change: 4e-08 eV^2
  Maximum number of iterations: 333

Symmetries present (total): 1

  ( 1  0  0)
  ( 0  1  0)
  ( 0  0  1)

32 k-points: 4 x 4 x 2 Monkhorst-Pack grid
16 k-points in the irreducible part of the Brillouin zone
       k-points in crystal coordinates                weights
   0:     0.12500000   -0.37500000   -0.25000000          2/32
   1:     0.12500000   -0.37500000    0.25000000          2/32
   2:     0.12500000   -0.12500000   -0.25000000          2/32
   3:     0.12500000   -0.12500000    0.25000000          2/32
   4:     0.12500000    0.12500000   -0.25000000          2/32
   5:     0.12500000    0.12500000    0.25000000          2/32
   6:     0.12500000    0.37500000   -0.25000000          2/32
   7:     0.12500000    0.37500000    0.25000000          2/32
   8:     0.37500000   -0.37500000   -0.25000000          2/32
   9:     0.37500000   -0.37500000    0.25000000          2/32
          ...
  15:     0.37500000    0.37500000    0.25000000          2/32

Wave functions: Uniform real-space grid
  Kinetic energy operator: 8*3+1=25 point O(h^6) finite-difference Laplacian
  ScaLapack parameters: grid=1x1, blocksize=None 

Eigensolver
   Davidson(niter=1, smin=None, normalize=True) 

Densities:
  Coarse grid: 40*40*92 grid
  Fine grid: 80*80*184 grid
  Total Charge: 0.000000 

Density mixing:
  Method: separate
  Backend: pulay
  Linear mixing parameter: 0.05
  Mixing with 5 old densities
  Damping of long wave oscillations: 50 

Hamiltonian:
  XC and Coulomb potentials evaluated on a 80*80*184 grid
  Using the PBE Exchange-Correlation functional
  Interpolation: tri-quintic (5. degree polynomial)
  Poisson solver: Jacobi solver with 4 multi-grid levels
    Coarsest grid: 10 x 10 x 23 points
    Stencil: 8*3+1=25 point O(h^6) finite-difference Laplacian
    Max iterations: 1000
    Tolerance: 2.000000e-10 

Memory estimate:
  Process memory now: 75.67 MiB
  Calculator: 1227.13 MiB
    Density: 109.50 MiB
      Arrays: 29.20 MiB
      Localized functions: 69.07 MiB
      Mixer: 11.23 MiB
    Hamiltonian: 45.85 MiB
      Arrays: 19.09 MiB
      XC: 0.00 MiB
      Poisson: 21.76 MiB
      vbar: 5.00 MiB
    Wavefunctions: 1071.78 MiB
      Arrays psit_nG: 521.09 MiB
      Eigensolver: 540.54 MiB
      Projections: 2.50 MiB
      Projectors: 7.65 MiB

Total number of cores used: 16
Parallelization over k-points: 16

Number of atoms: 58
Number of atomic orbitals: 232
Number of bands in calculation: 232
Bands to converge: occupied states only
Number of valence electrons: 288

... initialized

Initializing position-dependent things.

Density initialized from atomic densities
Creating initial wave functions:
  232 bands from LCAO basis set

                                              
                                              
                                              
                                              
                    O                         
             O                                
                 AlO     O                    
           Be    O    Be       O              
              OSi    O  O  Al O               
           O           Oi  O  Si              
                 O       Be O                 
              Si O   Si          O            
              O  Al OO O      Si              
           BeO        Be    O                 
             O     O  Si O Al                 
            Si           BeSi  O              
                  Si    O                     
              O     O           Si            
                      Si       O              
                                              
                                              
                                              
                                              

Positions:
   0 Be     4.604000    0.000000    2.297000    ( 0.0000,  0.0000,  0.0000)
   1 Be     4.604000    0.000000    6.891000    ( 0.0000,  0.0000,  0.0000)
   2 Be    -2.302000    3.987181    2.297000    ( 0.0000,  0.0000,  0.0000)
   3 Be    -2.302000    3.987181    6.891000    ( 0.0000,  0.0000,  0.0000)
   4 Be     2.302000    3.987181    2.297000    ( 0.0000,  0.0000,  0.0000)
   5 Be     2.302000    3.987181    6.891000    ( 0.0000,  0.0000,  0.0000)
   6 Al     0.000000    5.316242    2.297000    ( 0.0000,  0.0000,  0.0000)
   7 Al     4.604000    2.658121    6.891000    ( 0.0000,  0.0000,  0.0000)
   8 Al     4.604000    2.658121    2.297000    ( 0.0000,  0.0000,  0.0000)
   9 Al     0.000000    5.316242    6.891000    ( 0.0000,  0.0000,  0.0000)
  10 Si     3.038655    0.921267    0.000000    ( 0.0000,  0.0000,  0.0000)
  11 Si     1.565346    7.053096    0.000000    ( 0.0000,  0.0000,  0.0000)
  12 Si     6.890833    2.170919    0.000000    ( 0.0000,  0.0000,  0.0000)
  13 Si    -2.286833    5.803443    0.000000    ( 0.0000,  0.0000,  0.0000)
  14 Si     3.882513    4.882177    0.000000    ( 0.0000,  0.0000,  0.0000)
  15 Si     0.721487    3.092186    0.000000    ( 0.0000,  0.0000,  0.0000)
  16 Si    -0.721487    3.092186    4.594000    ( 0.0000,  0.0000,  0.0000)
  17 Si     5.325487    4.882177    4.594000    ( 0.0000,  0.0000,  0.0000)
  18 Si    -1.565346    7.053096    4.594000    ( 0.0000,  0.0000,  0.0000)
  19 Si     6.169346    0.921267    4.594000    ( 0.0000,  0.0000,  0.0000)
  20 Si     2.286833    5.803443    4.594000    ( 0.0000,  0.0000,  0.0000)
  21 Si     2.317168    2.170919    4.594000    ( 0.0000,  0.0000,  0.0000)
  22 O      1.757425    1.873574    0.000000    ( 0.0000,  0.0000,  0.0000)
  23 O      2.846575    6.100788    0.000000    ( 0.0000,  0.0000,  0.0000)
  24 O      6.706724    0.585188    0.000000    ( 0.0000,  0.0000,  0.0000)
  25 O     -2.102724    7.389174    0.000000    ( 0.0000,  0.0000,  0.0000)
  26 O      5.347851    5.515600    0.000000    ( 0.0000,  0.0000,  0.0000)
  27 O     -0.743851    2.458762    0.000000    ( 0.0000,  0.0000,  0.0000)
  28 O      0.743850    2.458762    4.594000    ( 0.0000,  0.0000,  0.0000)
  29 O      3.860150    5.515600    4.594000    ( 0.0000,  0.0000,  0.0000)
  30 O     -2.846575    6.100788    4.594000    ( 0.0000,  0.0000,  0.0000)
  31 O      7.450575    1.873574    4.594000    ( 0.0000,  0.0000,  0.0000)
  32 O      2.102724    7.389174    4.594000    ( 0.0000,  0.0000,  0.0000)
  33 O      2.501276    0.585188    4.594000    ( 0.0000,  0.0000,  0.0000)
  34 O      3.926287    1.156973    1.343200    ( 0.0000,  0.0000,  0.0000)
  35 O      0.677713    6.817388    7.844800    ( 0.0000,  0.0000,  0.0000)
  36 O      6.242888    2.821778    1.343200    ( 0.0000,  0.0000,  0.0000)
  37 O     -1.638888    5.152585    7.844800    ( 0.0000,  0.0000,  0.0000)
  38 O      3.642825    3.995611    1.343200    ( 0.0000,  0.0000,  0.0000)
  39 O      0.961175    3.978751    7.844800    ( 0.0000,  0.0000,  0.0000)
  40 O      0.677713    6.817388    1.343200    ( 0.0000,  0.0000,  0.0000)
  41 O      3.926287    1.156973    7.844800    ( 0.0000,  0.0000,  0.0000)
  42 O     -1.638888    5.152585    1.343200    ( 0.0000,  0.0000,  0.0000)
  43 O      6.242888    2.821778    7.844800    ( 0.0000,  0.0000,  0.0000)
  44 O      0.961175    3.978751    1.343200    ( 0.0000,  0.0000,  0.0000)
  45 O      3.642825    3.995611    7.844800    ( 0.0000,  0.0000,  0.0000)
  46 O     -0.961175    3.978751    3.250800    ( 0.0000,  0.0000,  0.0000)
  47 O      5.565175    3.995611    5.937200    ( 0.0000,  0.0000,  0.0000)
  48 O     -0.677713    6.817388    3.250800    ( 0.0000,  0.0000,  0.0000)
  49 O      5.281713    1.156973    5.937200    ( 0.0000,  0.0000,  0.0000)
  50 O      1.638888    5.152585    3.250800    ( 0.0000,  0.0000,  0.0000)
  51 O      2.965112    2.821778    5.937200    ( 0.0000,  0.0000,  0.0000)
  52 O      5.565175    3.995611    3.250800    ( 0.0000,  0.0000,  0.0000)
  53 O     -0.961175    3.978751    5.937200    ( 0.0000,  0.0000,  0.0000)
  54 O      5.281713    1.156973    3.250800    ( 0.0000,  0.0000,  0.0000)
  55 O     -0.677713    6.817388    5.937200    ( 0.0000,  0.0000,  0.0000)
  56 O      2.965112    2.821778    3.250800    ( 0.0000,  0.0000,  0.0000)
  57 O      1.638888    5.152585    5.937200    ( 0.0000,  0.0000,  0.0000)

Unit cell:
           periodic     x           y           z      points  spacing
  1. axis:    yes    9.210000    0.000000    0.000000    40     0.1994
  2. axis:    yes   -4.605000    7.976094    0.000000    40     0.1994
  3. axis:    yes    0.000000    0.000000   18.380000    92     0.1998

  Lengths:   9.210000   9.210000  18.380000
  Angles:   90.000000  90.000000 120.000000

Effective grid spacing dv^(1/3) = 0.2093

                     log10-error:    total        iterations:
           time      wfs    density  energy       fermi  poisson
iter:   1  13:37:02  +1.80   +inf  -487.202778    2      52     
iter:   2  13:37:33  +0.88   +inf  -494.135526    1             
iter:   3  13:38:03  +0.18   +inf  -495.886840    1             
iter:   4  13:38:47  -0.04  -0.69  -462.054778    6      42     
iter:   5  13:39:34  +0.71  -0.74  -838.323986    36     53     
iter:   6  13:40:20  +0.81  -0.49  -755.959703    35     39     
iter:   7  13:41:02  +0.22  -0.54  -760.790299    3      18     
iter:   8  13:41:45  +0.19  -0.53  -772.654047    2      26     
iter:   9  13:42:32  +0.27  -0.51  -444.974506    36     52     
iter:  10  13:43:18  +0.14  -0.84  -451.905920    30     42     
iter:  11  13:44:03  -0.33  -0.84  -436.916386    35     36     
iter:  12  13:44:47  -0.00  -0.96  -433.855829    32     39     
iter:  13  13:45:31  -0.12  -1.06  -431.416403    3      29     
iter:  14  13:46:17  -0.61  -1.17  -424.697458    32     40     
iter:  15  13:47:02  -0.46  -1.27  -421.898148    4      38     
iter:  16  13:47:45  -0.28  -1.41  -421.606241    4      31     
iter:  17  13:48:28  -0.84  -1.50  -421.708173    4      29     
iter:  18  13:49:08  -1.13  -1.52  -421.648130    3      14     
iter:  19  13:49:50  -1.41  -1.55  -421.593345    4      25     
iter:  20  13:50:32  -1.61  -1.57  -421.408957    3      22     
iter:  21  13:51:16  -1.46  -1.67  -421.253665    4      30     
iter:  22  13:51:58  -1.43  -1.78  -421.225466    4      24     
iter:  23  13:52:40  -1.86  -1.87  -421.271086    3      21     
iter:  24  13:53:20  -1.84  -2.00  -421.276625    3      18     
iter:  25  13:54:01  -2.43  -2.05  -421.263704    3      17     
iter:  26  13:54:43  -2.29  -2.08  -421.267040    3      24     
iter:  27  13:55:24  -2.37  -2.20  -421.229599    3      18     
iter:  28  13:56:04  -2.62  -2.30  -421.224266    3      15     
iter:  29  13:56:43  -2.96  -2.33  -421.216365    3      10     
iter:  30  13:57:22  -3.00  -2.37  -421.199620    3      11     
iter:  31  13:58:01  -2.99  -2.46  -421.189916    3      8      
iter:  32  13:58:40  -3.03  -2.50  -421.183000    3      10     
iter:  33  13:59:19  -2.99  -2.63  -421.180307    3      8      
iter:  34  13:59:57  -3.08  -2.75  -421.177233    2      8      
iter:  35  14:00:36  -3.32  -2.80  -421.177147    3      8      
iter:  36  14:01:14  -3.22  -2.95  -421.176994    3      5      
iter:  37  14:01:51  -3.74  -3.00  -421.174774    2      5      
iter:  38  14:02:29  -4.07  -3.03  -421.174572    2      5      
iter:  39  14:03:07  -4.03  -3.06  -421.172641    3      5      
iter:  40  14:03:44  -4.22  -3.15  -421.172956    2      5      
iter:  41  14:04:22  -4.43  -3.18  -421.171462    2      4      
iter:  42  14:05:00  -4.34  -3.28  -421.171053    2      4      
iter:  43  14:05:37  -4.53  -3.41  -421.171782    3      4      
iter:  44  14:06:15  -4.64  -3.48  -421.171993    2      4      
iter:  45  14:06:52  -4.72  -3.58  -421.172133    3      4      
iter:  46  14:07:30  -4.82  -3.79  -421.172799    2      3      
iter:  47  14:08:07  -5.31  -3.84  -421.172738    2      3      
iter:  48  14:08:44  -5.35  -3.87  -421.173599    2      2      
iter:  49  14:09:21  -5.83  -3.91  -421.173543    2      2      
iter:  50  14:09:58  -6.12  -3.95  -421.172896    2      2      
iter:  51  14:10:35  -6.40  -3.98  -421.172974    2      3      
iter:  52  14:11:12  -6.48  -4.13  -421.173113    2      2      
iter:  53  14:11:49  -6.82  -4.19  -421.172868    2      1      
iter:  54  14:12:26  -7.11  -4.21  -421.173025    2      2      
iter:  55  14:13:03  -7.12  -4.24  -421.172421    2      1      
iter:  56  14:13:40  -6.69  -4.26  -421.172246    2      3      
iter:  57  14:14:17  -6.69  -3.88  -421.173640    2      2      
iter:  58  14:14:54  -7.15  -4.14  -421.173622    2      2      
iter:  59  14:15:31  -7.13  -4.45  -421.173256    2      2      
iter:  60  14:16:09  -7.49  -4.47  -421.172823    2      2      

Converged after 60 iterations.

Dipole moment: (1.112914, 1.929759, -78.612130) |e|*Ang

Energy contributions relative to reference atoms: (reference = -196909.616745)

Kinetic:       +582.712925
Potential:     -576.258634
External:        +0.000000
XC:            -458.673506
Entropy (-ST):   -1.021533
Local:          +31.557158
--------------------------
Free energy:   -421.683589
Extrapolated:  -421.172823

Fermi level: -1.57277

Warning: Showing only first 2 kpts
 Kpt  Band  Eigenvalues  Occupancy
  0   142     -1.72364    0.10236
  0   143     -1.62447    0.07830
  0   144     -1.53349    0.05038
  0   145     -1.52068    0.04658

  1   142     -1.72364    0.10236
  1   143     -1.62447    0.07830
  1   144     -1.53349    0.05038
  1   145     -1.52068    0.04658


Writing to out/3.9.gpw (mode='all')

Timing:                              incl.     excl.
-----------------------------------------------------------
Hamiltonian:                        13.331     0.000   0.0% |
 Atomic:                             0.200     0.110   0.0% |
  XC Correction:                     0.091     0.091   0.0% |
 Calculate atomic Hamiltonians:      0.050     0.050   0.0% |
 Communicate:                        0.000     0.000   0.0% |
 Hartree integrate/restrict:         0.032     0.032   0.0% |
 Initialize Hamiltonian:             0.000     0.000   0.0% |
 Poisson:                           12.323    12.323   0.5% |
 XC 3D grid:                         0.716     0.716   0.0% |
 vbar:                               0.008     0.008   0.0% |
LCAO initialization:                13.896     0.214   0.0% |
 LCAO eigensolver:                   2.479     0.001   0.0% |
  Calculate projections:             0.015     0.015   0.0% |
  DenseAtomicCorrection:             0.013     0.013   0.0% |
  Distribute overlap matrix:         0.000     0.000   0.0% |
  Orbital Layouts:                   0.051     0.051   0.0% |
  Potential matrix:                  2.387     2.387   0.1% |
  Sum over cells:                    0.012     0.012   0.0% |
 LCAO to grid:                       9.906     9.906   0.4% |
 Set positions (LCAO WFS):           1.297     0.000   0.0% |
  Basic WFS set positions:           0.002     0.002   0.0% |
  Basis functions set positions:     0.000     0.000   0.0% |
  TCI: Calculate S, T, P:            1.295     1.295   0.1% |
SCF-cycle:                        2381.629   105.574   4.3% |-|
 Davidson:                        1937.070   429.627  17.5% |------|
  Apply hamiltonian:               118.887   118.887   4.8% |-|
  Subspace diag:                   530.850     0.018   0.0% |
   calc_h_matrix:                  261.553   139.769   5.7% |-|
    Apply hamiltonian:             121.784   121.784   5.0% |-|
   diagonalize:                      1.006     1.006   0.0% |
   rotate_psi:                     268.273   268.273  10.9% |---|
  calc. matrices:                  581.392   468.808  19.1% |-------|
   Apply hamiltonian:              112.584   112.584   4.6% |-|
  diagonalize:                       7.653     7.653   0.3% |
  rotate_psi:                      268.661   268.661  11.0% |---|
 Density:                           41.733     0.002   0.0% |
  Atomic density matrices:           0.584     0.584   0.0% |
  Mix:                               5.758     5.758   0.2% |
  Multipole moments:                 0.075     0.075   0.0% |
  Pseudo density:                   35.314    35.311   1.4% ||
   Symmetrize density:               0.003     0.003   0.0% |
 Hamiltonian:                      292.582     0.010   0.0% |
  Atomic:                           12.063     6.848   0.3% |
   XC Correction:                    5.215     5.215   0.2% |
  Calculate atomic Hamiltonians:     2.778     2.778   0.1% |
  Communicate:                       0.023     0.023   0.0% |
  Hartree integrate/restrict:        1.749     1.749   0.1% |
  Poisson:                         228.153   228.153   9.3% |---|
  XC 3D grid:                       47.466    47.466   1.9% ||
  vbar:                              0.339     0.339   0.0% |
 Orthonormalize:                     4.670     0.000   0.0% |
  calc_s_matrix:                     0.995     0.995   0.0% |
  inverse-cholesky:                  0.006     0.006   0.0% |
  projections:                       1.308     1.308   0.1% |
  rotate_psi_s:                      2.360     2.360   0.1% |
Set symmetry:                        0.001     0.001   0.0% |
Other:                              43.444    43.444   1.8% ||
-----------------------------------------------------------
Total:                                      2452.301 100.0%

Memory usage: 1.94 GiB
Date: Sat Nov 10 14:16:51 2018
