LAMMPS (16 Mar 2018)
Reading data file ...
  triclinic box = (0 0 0) to (9.208 7.97436 18.376) with tilt (-4.604 0 0)
  1 by 1 by 1 MPI processor grid
  reading atoms ...
  116 atoms
Finding 1-2 1-3 1-4 neighbors ...
  special bond factors lj:   0          0          0         
  special bond factors coul: 0          0          0         
  0 = max # of 1-2 neighbors
  0 = max # of 1-3 neighbors
  0 = max # of 1-4 neighbors
  1 = max # of special neighbors
Replicating atoms ...
  triclinic box = (0 0 0) to (73.664 63.7949 36.752) with tilt (-36.832 0 0)
  1 by 1 by 1 MPI processor grid
  14848 atoms
Finding 1-2 1-3 1-4 neighbors ...
  special bond factors lj:   0          0          0         
  special bond factors coul: 0          0          0         
  0 = max # of 1-2 neighbors
  0 = max # of 1-3 neighbors
  0 = max # of 1-4 neighbors
  1 = max # of special neighbors
  Time spent = 0.00358415 secs
PPPM initialization ...
WARNING: System is not charge neutral, net charge = -0.2048 (../kspace.cpp:302)
  using 12-bit tables for long-range coulomb (../kspace.cpp:321)
  G vector (1/distance) = 0.201681
  grid = 36 50 24
  stencil order = 5
  estimated absolute RMS force accuracy = 0.00105653
  estimated relative force accuracy = 7.33721e-05
  using double precision FFTs
  3d grid and FFT values/proc = 65395 43200
Neighbor list info ...
  update every 1 steps, delay 0 steps, check yes
  max neighbors/atom: 2000, page size: 100000
  master list distance cutoff = 15.3
  ghost atom cutoff = 15.3
  binsize = 7.65, bins = 15 9 5
  3 neighbor lists, perpetual/occasional/extra = 3 0 0
  (1) pair morse, perpetual
      attributes: half, newton on
      pair build: half/bin/newton/tri
      stencil: half/bin/3d/newton/tri
      bin: standard
  (2) pair buck, perpetual, copy from (1)
      attributes: half, newton on
      pair build: copy
      stencil: none
      bin: none
  (3) pair lj/cut/coul/long, perpetual, copy from (1)
      attributes: half, newton on
      pair build: copy
      stencil: none
      bin: none
Setting up Verlet run ...
  Unit style    : metal
  Current step  : 0
  Time step     : 0.001
Per MPI rank memory allocation (min/avg/max) = 145.7 | 145.7 | 145.7 Mbytes
Step Temp Volume Cella Cellb Cellc CellGamma Pxx Pyy Pzz Pxy Pxz Pyz Lx Ly Lz Press PotEng 
       0          240    172711.88       73.664    73.664001       36.752          120    -208654.5   -208691.68   -279674.19    20.196897    -6.105555    8.1614163       73.664    63.794896       36.752   -232340.12   -309191.56 
      10    331.52486    172627.69    73.652028    73.652029    36.746027          120   -210896.18   -210986.05   -258149.42    107.34065   -19.913117   -161.54702    73.652028    63.784528    36.746027   -226677.22   -309402.85 
      20      594.885    172380.33    73.616833    73.616833    36.728468          120   -208617.77   -208244.63   -198978.22    29.434014   -245.66732    -351.5307    73.616833    63.754048    36.728468   -205280.21   -309957.48 
      30    594.76958    171990.88    73.561352    73.561353    36.700788          120   -182826.25      -182376    -119320.8    -207.8548   -799.93135   -425.50509    73.561352    63.706001    36.700788   -161507.68   -310026.07 
      40    376.13679    171504.59    73.491957    73.491957    36.666165          120    -138895.9    -139005.2   -39767.992   -567.89818   -1139.5624   -466.09333    73.491957    63.645902    36.666165    -105889.7   -309659.68 
      50    459.87803    170982.58    73.417319    73.417319    36.628927          120    -96820.08   -97318.759   -5660.4148   -662.56126   -1204.9645   -612.27313    73.417319    63.581264    36.628927   -66599.751   -309853.41 
      60    764.18888    170475.43    73.344659     73.34466    36.592676          120    -70145.28   -70044.516   -41898.468   -616.62452   -2085.8724   -447.27845    73.344659    63.518339    36.592676   -60696.088   -310475.05 
      70     945.5973    170004.77    73.277099    73.277099     36.55897          120   -52514.537   -52225.913   -104655.41   -1559.2496   -2426.7122   -436.23868    73.277099     63.45983     36.55897    -69798.62   -310891.56 
      80    804.17203    169571.96    73.214861    73.214862    36.527919          120   -41846.177   -42506.674   -150539.16   -1746.9282    -2944.391    105.93857    73.214861    63.405931    36.527919   -78297.338   -310694.61 
      90    532.92826    169171.06    73.157117    73.157118    36.499109          120    -36023.05   -36723.575   -165498.78   -1979.5567   -3432.8877   -219.45161    73.157117    63.355923    36.499109   -79415.134   -310231.77 
     100    550.65777    168796.92    73.103145    73.103146    36.472182          120   -21117.625    -21222.91   -145548.19   -1720.0424    -3192.763   -711.25348    73.103145    63.309182    36.472182   -62629.575   -310310.09 
     110    723.88631    168451.91    73.053306    73.053306    36.447316          120   -1754.6158   -1947.8189   -102863.38   -1822.8256   -2331.5616   -836.46405    73.053306    63.266019    36.447316   -35521.937   -310694.43 
     120    725.89918     168142.5    73.008551    73.008552    36.424987          120    9081.8807    9135.6142   -52053.824   -1817.7927   -1851.0743   -1384.1087    73.008551    63.227261    36.424987   -11278.776   -310755.65 
     130    620.69675    167872.47    72.969446    72.969447    36.405477          120    7599.6565    8660.9801    -12141.28   -1773.5763   -1787.8306   -1367.5855    72.969446    63.193395    36.405477    1373.1188   -310603.45 
     140    574.07514    167639.38    72.935658    72.935659     36.38862          120    2659.3505    2623.1941    306.22632   -1298.9154   -1633.8158   -1185.8923    72.935658    63.164134     36.38862    1862.9236   -310553.79 
     150    626.67507    167434.98    72.906003    72.906004    36.373825          120   -5120.2905     -3947.07   -22605.249   -1919.5711   -1271.9827   -574.75087    72.906003    63.138452    36.373825   -10557.536   -310696.49 
     160    687.82508    167245.65    72.878514    72.878514     36.36011          120   -15631.266   -13884.101   -59095.739   -1682.2776   -1413.1969   -476.06441    72.878514    63.114645     36.36011   -29537.035   -310866.11 
     170    667.71762    167056.53    72.851033    72.851034      36.3464          120   -20514.073   -18363.846    -89477.96   -672.04942   -2117.8419   -786.73404    72.851033    63.090846      36.3464   -42785.293    -310884.6 
     180    589.81128    166858.23    72.822197    72.822197    36.332013          120   -17250.841   -15300.198   -106550.64   -513.97904   -2358.6056   -849.82723    72.822197    63.065873    36.332013   -46367.225   -310788.55 
     190    565.09384    166648.78    72.791713    72.791714    36.316804          120   -12113.718   -10624.338   -104456.58    191.68658   -1889.4755   -754.77361    72.791713    63.039474    36.316804   -42398.213   -310788.55 
     200    602.52388    166431.75      72.7601      72.7601    36.301032          120   -7702.1354   -6715.2956   -84956.281   -580.95457   -2031.1278   -622.22203      72.7601    63.012096    36.301032   -33124.571   -310907.92 
     210    608.07952    166214.03    72.728359    72.728359    36.285195          120   -3193.4196   -1809.2767   -60820.859   -1058.8374   -2089.8463   -423.48093    72.728359    62.984607    36.285195   -21941.185   -310968.65 
     220    580.79212    166003.23    72.697601    72.697601     36.26985          120     698.6862    2184.1013   -41070.219   -820.78159   -1765.1189   -1467.1244    72.697601     62.95797     36.26985   -12729.144   -310963.05 
     230    559.22578    165804.81    72.668623    72.668624    36.255393          120    1640.2223    2039.9656    -33639.82   -564.38291    -1332.417   -1761.6079    72.668623    62.932875    36.255393   -9986.5441   -310965.06 
     240    560.71416    165619.69    72.641569    72.641569    36.241895          120   -232.03966     65.12305   -38484.012   -219.49447   -2039.0802   -1915.6259    72.641569    62.909445    36.241895   -12883.643   -311010.53 
     250    575.43882    165445.03    72.616025    72.616025     36.22915          120   -2523.5792   -2419.2161   -52663.192     101.7964   -1936.7077   -2011.6269    72.616025    62.887323     36.22915   -19201.996   -311083.94 
     260    570.51326    165276.18    72.591312    72.591313    36.216821          120   -3042.4481   -3934.2897   -67157.336    62.357613   -1793.1166   -2138.7095    72.591312    62.865921    36.216821   -24711.358    -311121.2 
     270    544.88607    165109.33    72.566877    72.566878     36.20463          120   -2375.3324   -3373.0014    -75350.82   -335.22214   -1596.4889   -1284.7655    72.566877     62.84476     36.20463   -27033.051   -311117.87 
     280    524.08326    164943.03    72.542506    72.542506    36.192471          120    -961.3757   -1458.5472   -74445.575   -227.27233   -1220.4578     25.88602    72.542506    62.823653    36.192471   -25621.833   -311120.58 
     290    524.66075     164778.3    72.518348    72.518348    36.180418          120    2212.3075    2488.5176   -65151.004   -49.258813   -1452.9008    1.7647441    72.518348    62.802732    36.180418    -20150.06   -311163.39 
     300    524.92766    164618.39    72.494882    72.494883    36.168711          120    6465.8085    6251.7999   -51785.066    149.71989   -1754.8215   -135.82777    72.494882     62.78241    36.168711   -13022.486    -311204.6 
     310    515.53443    164467.26     72.47269    72.472691    36.157639          120    9158.0542    8802.6298    -37738.67    240.26099    -1743.783   -569.09875     72.47269    62.763191    36.157639   -6592.6621   -311225.94 
     320    502.89552    164327.78    72.452196    72.452197    36.147414          120     9640.119    9234.3103   -30155.396    183.88218   -2062.8513   -1017.7299    72.452196    62.745443    36.147414   -3760.3224   -311239.15 
     330    497.41544    164200.35    72.433464    72.433464    36.138068          120    7857.4327    8200.1339   -30828.998    121.77795   -2309.8669   -1082.6229    72.433464     62.72922    36.138068   -4923.8106   -311266.35 
     340    496.76349    164082.93    72.416194    72.416194    36.129452          120    6280.0019    7246.2865   -39719.018    275.08484   -1860.7863   -1164.7991    72.416194    62.714264    36.129452     -8730.91      -311302 
     350    488.73977    163972.02    72.399874    72.399875     36.12131          120    5486.1902    6050.3839   -50953.787   -3.8789572   -1031.7633   -1199.5336    72.399874    62.700131     36.12131   -13139.071   -311323.58 
     360    475.13924    163864.25    72.384008    72.384009    36.113394          120    5569.0986    7087.2014    -57869.76   -787.03096    -680.5894   -1493.6523    72.384008    62.686391    36.113394   -15071.153   -311332.78 
     370    461.13715    163757.96    72.368355    72.368356    36.105585          120     6443.984    9541.4791   -58192.889   -999.79829   -1602.6041   -1713.9719    72.368355    62.672835    36.105585   -14069.142   -311340.05 
     380    458.50327    163653.45    72.352957    72.352957    36.097902          120    8931.5414    11554.796   -53102.915   -1274.0736   -1859.3699   -1959.5663    72.352957    62.659499    36.097902   -10872.192   -311367.81 
     390    453.88144    163552.34    72.338053    72.338053    36.090466          120    11689.905    13235.851   -44630.684   -1629.7454   -2400.1419   -1775.6065    72.338053    62.646592    36.090466   -6568.3092   -311391.67 
     400     444.2437    163456.82    72.323968    72.323968    36.083439          120    13977.016    15102.017   -35179.452   -303.34657   -2635.6057   -1328.1142    72.323968    62.634394    36.083439    -2033.473   -311404.23 
     410    434.40191    163368.95    72.311005    72.311006    36.076972          120    15217.119    16571.427   -29471.538   -76.193516   -2307.5763   -1634.1154    72.311005    62.623168    36.076972    772.33583    -311415.5 
     420    433.13931    163289.53    72.299286    72.299286    36.071125          120    15541.884    16089.778   -29903.419    -367.0962   -2108.7556   -810.10955    72.299286    62.613019    36.071125    576.08121   -311443.07 
     430    427.92894    163217.57    72.288664    72.288665    36.065826          120    15026.959    14640.794   -34357.972    69.589634   -1810.6367    383.40199    72.288664     62.60382    36.065826   -1563.4064   -311462.12 
     440    420.92324    163150.99    72.278833    72.278833    36.060921          120    14262.388    13165.371   -40963.802    304.72996   -2355.8857     274.4412    72.278833    62.595306    36.060921   -4512.0144   -311477.99 
     450    411.38777    163087.51    72.269457    72.269458    36.056243          120    14246.377    13308.231   -45017.385    338.90404   -2051.1685   -174.31681    72.269457    62.587186    36.056243   -5820.9256   -311487.83 
     460     405.4772    163025.96    72.260365    72.260366    36.051707          120    15540.538    14848.704   -45245.238     1079.689   -1217.4782    -762.0118    72.260365    62.579313    36.051707   -4951.9987   -311503.75 
     470    399.95179    162966.64    72.251599    72.251599    36.047333          120     17873.44    17024.639   -41834.927    796.56391   -1223.3829   -207.93976    72.251599    62.571721    36.047333   -2312.2826   -311519.35 
     480    394.03954    162910.85    72.243353    72.243354     36.04322          120    19414.044      18908.4    -35836.34    593.00712   -1257.1234     433.3193    72.243353     62.56458     36.04322    828.70112   -311533.58 
     490    389.36304    162860.07    72.235847    72.235847    36.039474          120    19281.086     20171.56   -31381.903    915.89306   -1182.4951    766.90889    72.235847    62.558079    36.039474    2690.2476   -311549.23 
     500    384.15831    162815.02    72.229185    72.229186    36.036151          120    19345.295      21385.4   -29295.529    832.44581   -671.37864    856.99044    72.229185     62.55231    36.036151     3811.722   -311562.88 
     510    381.26977     162775.8    72.223385    72.223386    36.033257          120    18820.898    21454.143   -30204.387    695.61864   -956.65321    1149.4576    72.223385    62.547287    36.033257    3356.8848   -311581.34 
     520    373.41152    162741.63    72.218331    72.218332    36.030736          120    17292.735    20682.125   -32713.421    88.644931   -1527.4288    743.67175    72.218331     62.54291    36.030736    1753.8129   -311589.72 
     530    368.76906    162711.14    72.213821    72.213821    36.028485          120    17243.983    19930.295   -36078.751    161.78119   -1728.3451    13.465341    72.213821    62.539004    36.028485    365.17573   -311603.61 
     540    362.52666     162683.2    72.209688    72.209688    36.026423          120    17816.936    20418.635   -38085.738    659.76338   -2356.9425   -122.88927    72.209688    62.535425    36.026423    49.944451    -311613.4 
     550    355.31762    162657.41    72.205871    72.205872    36.024519          120    18119.089     21507.76   -38014.549    267.82393   -2509.0087   -436.62605    72.205871     62.53212    36.024519    537.43344   -311620.35 
     560    353.14957    162633.84    72.202383    72.202383    36.022779          120    18583.877    22076.393    -36242.78   -112.20111   -2508.2547    39.281356    72.202383    62.529098    36.022779    1472.4966   -311637.36 
     570    347.59148    162612.91    72.199285    72.199286    36.021233          120    20019.774    22956.439   -33271.369   -387.99731   -1783.6176    370.26809    72.199285    62.526416    36.021233    3234.9481   -311647.06 
     580    343.04904    162595.41    72.196696    72.196697    36.019942          120    20616.052    23238.141   -30536.723   -451.65622   -1206.3521    257.27846    72.196696    62.524174    36.019942    4439.1565   -311658.61 
     590    338.66252    162581.87    72.194692    72.194692    36.018941          120    20509.437    22885.847    -28553.77   -72.279986   -1632.6994    376.58012    72.194692    62.522438    36.018941    4947.1712   -311669.53 
     600    332.88743    162572.28    72.193272    72.193273    36.018233          120    20470.927    22183.108   -29202.418    256.30008   -1610.3888    537.54697    72.193272    62.521208    36.018233    4483.8725   -311676.96 
     610      330.067     162566.1    72.192357    72.192357    36.017777          120    20717.787    21026.413   -31229.144    252.35992   -884.70708    131.00891    72.192357    62.520415    36.017777    3505.0186   -311689.43 
     620    325.27055    162562.49    72.191823    72.191823     36.01751          120    20161.494    20411.288   -33281.247    -94.84715   -564.04911   -659.25696    72.191823    62.519953     36.01751    2430.5117   -311698.23 
     630    325.66155    162560.65     72.19155    72.191551    36.017374          120    19871.033    20548.385   -35340.155   -69.271795   -1393.8089   -930.29335     72.19155    62.519717    36.017374    1693.0877   -311716.41 
     640    317.33843    162560.04     72.19146    72.191461    36.017329          120    20024.532    21219.692   -35478.411    107.30414   -2029.4732   -1019.1713     72.19146    62.519639    36.017329    1921.9372   -311716.93 
     650    311.15039    162560.67    72.191554    72.191554    36.017376          120    20630.126     21424.24   -34761.607   -52.658408   -2526.4788   -1441.1863    72.191554     62.51972    36.017376    2430.9196   -311721.24 
     660    313.95634    162562.83    72.191874    72.191874    36.017536          120    21582.652    22047.967   -32521.234    56.228777   -2769.1421   -1277.6782    72.191874    62.519997    36.017536     3703.128   -311742.53 
     670     307.3565    162567.21    72.192521    72.192522    36.017859          120    22665.086    22623.037   -29414.523    738.31806   -2255.7987   -1091.5938    72.192521    62.520558    36.017859    5291.1997   -311745.28 
     680    305.60552    162574.51    72.193603    72.193603    36.018398          120    22432.069    21976.237   -28848.613    560.91827   -2359.9207    85.853525    72.193603    62.521495    36.018398    5186.5645   -311757.42 
     690    297.42687     162584.6    72.195096    72.195096    36.019143          120    21876.323    22304.976   -30461.208    344.99117   -2322.9143    120.91409    72.195096    62.522787    36.019143     4573.364   -311756.67 
     700    294.81312     162596.9    72.196916    72.196917    36.020051          120    21043.591    21695.121   -32762.533    259.95085    -2098.352    145.33078    72.196916    62.524364    36.020051     3325.393    -311766.1 
     710    294.07478     162610.6    72.198943    72.198944    36.021063          120     20047.43    21869.008   -34053.256    80.435169   -1370.4227    212.85527    72.198943     62.52612    36.021063    2621.0603   -311778.24 
     720    291.20802    162625.12    72.201094    72.201094    36.022135          120    19953.253    21707.069    -35567.22   -220.76707   -720.39447   -576.80584    72.201094    62.527982    36.022135    2031.0341   -311785.43 
     730    289.53885    162640.12    72.203312    72.203313    36.023242          120    20346.763     21258.84   -35364.817    506.55207   -588.80303   -1156.1673    72.203312    62.529903    36.023242    2080.2618   -311794.87 
     740    285.23875     162655.6    72.205604    72.205605    36.024386          120    20530.759    21823.503   -33569.603    347.62867   -999.27137   -1080.2941    72.205604    62.531888    36.024386    2928.2196   -311799.44 
     750    280.97839    162672.02    72.208033    72.208033    36.025597          120    20202.135    21745.071   -32478.542   -65.051889   -1376.0467   -1200.0668    72.208033    62.533991    36.025597    3156.2214   -311803.65 
     760    276.92888    162689.49    72.210617    72.210618    36.026887          120     19977.28    21287.699   -32011.066    282.70436   -2442.2714   -918.09336    72.210617     62.53623    36.026887    3084.6376   -311808.27 
     770    276.03359    162707.91    72.213344    72.213344    36.028247          120    19836.605     20819.34   -32352.313   -24.428446   -2794.3203    -1028.192    72.213344    62.538591    36.028247    2767.8771    -311817.9 
     780    275.77777    162727.03    72.216172    72.216173    36.029658          120    18979.597    20010.676   -32934.321    162.41539   -2765.6927   -1407.4347    72.216172     62.54104    36.029658    2018.6506    -311828.3 
     790    272.84731    162746.37    72.219033    72.219033    36.031086          120     18344.31    19665.629   -34106.351    703.36403   -2287.8493   -746.22716    72.219033    62.543518    36.031086     1301.196    -311834.2 
     800    268.75948    162765.51    72.221864    72.221864    36.032498          120    19005.517    19672.688   -35719.547    708.11704   -1989.8955   -675.09431    72.221864    62.545969    36.032498    986.21941   -311837.19 
     810    266.21977    162784.24    72.224634    72.224634     36.03388          120    18426.782    19593.506   -36235.593    409.60991   -1168.7198   -1271.6324    72.224634    62.548368     36.03388    594.89842   -311842.67 
     820    266.10217    162802.34     72.22731    72.227311    36.035215          120    18080.891    18709.182   -36091.843    792.32127   -638.66031   -1165.3097     72.22731    62.550686    36.035215    232.74307   -311852.47 
     830    261.40969    162819.66    72.229871    72.229872    36.036493          120    18513.079    18221.108   -35708.911    242.00219   -759.24899   -1131.5346    72.229871    62.552904    36.036493    341.75862   -311853.41 
     840    261.32023    162836.26    72.232326    72.232327    36.037718          120    18658.065    17860.923   -35342.362    542.66838   -1333.9135    -865.2614    72.232326     62.55503    36.037718    392.20836    -311862.4 
     850    257.51315    162852.29    72.234696    72.234697      36.0389          120    18920.669    18534.656   -33977.546    1077.3939   -1104.4482   -636.79873    72.234696    62.557082      36.0389    1159.2596   -311863.84 
     860     253.7397    162868.19    72.237047    72.237048    36.040073          120    19028.782    18843.561   -33680.945    1168.9057   -1304.4763    -703.5852    72.237047    62.559119    36.040073    1397.1327   -311865.27 
     870    253.77056    162884.17    72.239409     72.23941    36.041252          120    19099.102      19169.1   -33652.742    1047.0974    -1947.595   -812.79967    72.239409    62.561164    36.041252    1538.4867   -311873.68 
     880    249.34217    162900.27    72.241789     72.24179    36.042439          120    19078.038     19407.14   -34886.757    1214.5584   -1592.7076   -346.62653    72.241789    62.563225    36.042439    1199.4734   -311873.08 
     890    250.11379    162916.27    72.244155    72.244156     36.04362          120    18780.287    18809.089   -36443.549    1584.9414   -1616.3492   -193.22523    72.244155    62.565274     36.04362     381.9421   -311882.01 
     900    246.55783    162931.77    72.246445    72.246446    36.044762          120    18520.149    18823.533   -36219.552    795.44658   -1239.6258   -146.91461    72.246445    62.567258    36.044762    374.71003   -311882.47 
     910    245.08121    162946.72    72.248655    72.248655    36.045865          120    18186.419    18536.293   -35977.857    802.38133   -634.73602   -259.47486    72.248655    62.569171    36.045865    248.28486   -311886.22 
     920    243.62582    162961.11    72.250782    72.250783    36.046926          120    17971.826    19168.639   -35569.708    824.75833   -480.76141    -418.2764    72.250782    62.571014    36.046926    523.58546   -311889.58 
     930    242.03833    162975.16    72.252859    72.252859    36.047962          120    17713.477    19863.764   -33776.652    934.21634   -755.14183   -497.36172    72.252859    62.572812    36.047962    1266.8629   -311893.11 
     940    240.71118    162989.28    72.254946    72.254946    36.049003          120    17405.439    19328.355   -32597.343    1489.2451   -781.47658   -848.92104    72.254946    62.574619    36.049003     1378.817   -311896.51 
     950    240.00976    163003.57    72.257056    72.257057    36.050056          120    17210.727    19520.114   -33631.508    1275.0193   -976.52209   -1026.4615    72.257056    62.576447    36.050056     1033.111   -311900.68 
     960    238.25571     163017.8    72.259159     72.25916    36.051105          120    17654.121    19374.734   -35488.333      1067.56   -956.14943    -569.6901    72.259159    62.578268    36.051105    513.50741   -311902.56 
     970    237.75649    163031.67    72.261208    72.261208    36.052127          120    17527.311    19304.585   -36348.468    1344.7005   -1551.7852   -635.28624    72.261208    62.580042    36.052127    161.14283   -311906.76 
     980    237.41747    163045.01    72.263179     72.26318    36.053111          120    17894.924    18777.925   -35863.071    944.13484   -1766.9869   -561.90864    72.263179     62.58175    36.053111    269.92589   -311911.04 
     990    236.76393    163057.86    72.265078    72.265079    36.054058          120     18166.07    18330.652   -36586.149    456.08219    -1496.972     73.50325    72.265078    62.583394    36.054058   -29.808797    -311914.5 
    1000    236.96595     163070.1    72.266886    72.266887     36.05496          120     18557.97    17878.937   -37024.856    668.28255   -1472.1025    296.80611    72.266886     62.58496     36.05496   -195.98292   -311919.53 
Loop time of 303.147 on 1 procs for 1000 steps with 14848 atoms

Performance: 0.285 ns/day, 84.208 hours/ns, 3.299 timesteps/s
100.0% CPU use with 1 MPI tasks x no OpenMP threads

MPI task timing breakdown:
Section |  min time  |  avg time  |  max time  |%varavg| %total
---------------------------------------------------------------
Pair    | 241.06     | 241.06     | 241.06     |   0.0 | 79.52
Bond    | 0.00024843 | 0.00024843 | 0.00024843 |   0.0 |  0.00
Kspace  | 10.945     | 10.945     | 10.945     |   0.0 |  3.61
Neigh   | 44.372     | 44.372     | 44.372     |   0.0 | 14.64
Comm    | 0.43715    | 0.43715    | 0.43715    |   0.0 |  0.14
Output  | 0.010524   | 0.010524   | 0.010524   |   0.0 |  0.00
Modify  | 6.2147     | 6.2147     | 6.2147     |   0.0 |  2.05
Other   |            | 0.1115     |            |       |  0.04

Nlocal:    14848 ave 14848 max 14848 min
Histogram: 1 0 0 0 0 0 0 0 0 0
Nghost:    46857 ave 46857 max 46857 min
Histogram: 1 0 0 0 0 0 0 0 0 0
Neighs:    1.00926e+07 ave 1.00926e+07 max 1.00926e+07 min
Histogram: 1 0 0 0 0 0 0 0 0 0

Total # of neighbors = 10092624
Ave neighs/atom = 679.73
Ave special neighs/atom = 0
Neighbor list builds = 160
Dangerous builds = 0
PPPM initialization ...
  using 12-bit tables for long-range coulomb (../kspace.cpp:321)
  G vector (1/distance) = 0.20262
  grid = 36 50 24
  stencil order = 5
  estimated absolute RMS force accuracy = 0.000996679
  estimated relative force accuracy = 6.92155e-05
  using double precision FFTs
  3d grid and FFT values/proc = 65395 43200
Setting up Verlet run ...
  Unit style    : metal
  Current step  : 0
  Time step     : 0.001
Per MPI rank memory allocation (min/avg/max) = 151.5 | 151.5 | 151.5 Mbytes
Step Temp Volume Cella Cellb Cellc CellGamma Pxx Pyy Pzz Pxy Pxz Pyz Lx Ly Lz Press PotEng 
       0    236.96595     163070.1    72.266886    72.266887     36.05496          120    18570.149    17891.758   -37018.016    668.70051   -1472.0457    296.73219    72.266886     62.58496     36.05496   -185.36995   -311919.35 
      10    229.66756    163081.66    72.268593    72.268594    36.055812          120    18236.681     18317.27   -37139.418    454.15072   -2045.3177    573.99407    72.268593    62.586438    36.055812     -195.156   -311909.01 
      20    231.68464    163092.57    72.270205    72.270206    36.056616          120    17931.494    18124.422   -35620.635    678.27361   -1422.2967     446.0093    72.270205    62.587834    36.056616    145.09366   -311916.17 
      30    232.10109    163103.06    72.271754    72.271755    36.057389          120    18075.254     18289.71    -35205.43    923.32987   -1275.2046    68.695623    72.271754    62.589176    36.057389    386.51148   -311919.97 
      40    229.85263    163113.29    72.273265    72.273266    36.058143          120    17553.043    18559.846    -35349.69     864.9174   -1388.1276    198.86382    72.273265    62.590484    36.058143    254.39952   -311918.45 
      50    231.24281    163123.17    72.274725    72.274726    36.058871          120    16900.568    17619.277    -36358.78    962.93349   -1397.7659    92.308474    72.274725    62.591749    36.058871   -612.97855   -311923.42 
      60    230.29362     163132.2    72.276059    72.276059    36.059537          120    15707.374    16259.828   -37066.993    768.45876   -1806.3379    431.57491    72.276059    62.592904    36.059537     -1699.93   -311923.68 
      70    231.40526    163139.79    72.277179     72.27718    36.060096          120    15503.266    15976.473   -37332.102     553.5414   -1328.5243    530.47894    72.277179    62.593874    36.060096   -1950.7879   -311927.15 
      80    229.76735    163145.82     72.27807    72.278071     36.06054          120    15732.365    16269.301   -37372.544    469.13651   -728.76213    497.86711     72.27807    62.594645     36.06054   -1790.2928   -311925.32 
      90    231.84009    163150.44    72.278753    72.278753    36.060881          120    16161.954    16149.837   -37274.058    141.69048   -855.09202   -443.14991    72.278753    62.595236    36.060881   -1654.0891    -311930.3 
     100    230.12637    163153.84    72.279253    72.279254    36.061131          120    16270.557    16979.829   -36620.462    298.95795   -671.20824   -121.95516    72.279253     62.59567    36.061131   -1123.3588   -311926.82 
     110    230.69242    163156.34    72.279624    72.279624    36.061315          120     16224.63     17654.51    -36763.09    1163.2843   -1159.1612     168.2754    72.279624    62.595991    36.061315   -961.31666   -311928.52 
     120    230.49398    163158.11    72.279884    72.279885    36.061445          120    15732.548    17669.187   -37064.772    972.44832   -1382.2741   -310.57773    72.279884    62.596217    36.061445    -1221.012   -311928.43 
     130    231.72586    163159.03     72.28002    72.280021    36.061513          120    15562.428    16883.417    -36720.74    941.49348   -1008.9899    420.17061     72.28002    62.596334    36.061513   -1424.9648   -311930.19 
     140    230.19567       163159    72.280016    72.280016    36.061511          120     15970.16    16550.931   -37242.755     1002.496   -1211.0283    560.72339    72.280016    62.596331    36.061511    -1573.888   -311926.89 
     150    231.20441    163158.01    72.279869     72.27987    36.061438          120    16630.097    16816.774   -37127.267    934.62397   -1487.2125    422.72448    72.279869    62.596204    36.061438   -1226.7987   -311927.44 
     160    232.98416     163156.3    72.279617    72.279617    36.061312          120    17129.583    17127.092   -36125.917    588.20299   -1096.7103    29.522469    72.279617    62.595985    36.061312   -623.08052   -311929.44 
     170    234.08846    163154.26    72.279315    72.279316    36.061161          120     17467.83    17155.319   -35296.403    555.68599   -1121.0822   -328.43955    72.279315    62.595724    36.061161   -224.41792   -311930.22 
     180    232.05787    163152.15    72.279004    72.279004    36.061006          120    17794.078    17486.324   -35729.266    1054.3965   -953.21363   -850.53019    72.279004    62.595454    36.061006   -149.62142   -311923.84 
     190    232.69232    163150.04    72.278692    72.278693    36.060851          120    17826.899    18419.439   -35959.433    1093.7571   -521.69158   -716.33215    72.278692    62.595184    36.060851    95.635016   -311923.28 
     200    234.88682    163148.06      72.2784    72.278401    36.060705          120     18033.94    17569.963   -35170.348    1101.8239   -677.11647   -257.19618      72.2784    62.594931    36.060705    144.51824   -311925.23 
     210    234.17676    163146.25    72.278134    72.278134    36.060572          120    17772.703    17744.736   -35686.942     1206.223   -182.39796   -304.14798    72.278134      62.5947    36.060572   -56.500908   -311921.15 
     220    239.22318    163144.47    72.277871    72.277871    36.060441          120    17652.947    17472.413   -35847.735    483.27864   -759.10106   -240.24624    72.277871    62.594473    36.060441   -240.79152   -311928.05 
     230    236.35934    163142.65    72.277602    72.277603    36.060307          120    18249.332    17631.283   -35530.727    232.28077   -1136.3478    76.245755    72.277602     62.59424    36.060307    116.62931   -311919.52 
     240    236.35395    163140.96    72.277351    72.277352    36.060182          120    17926.804    17911.771   -35514.012    647.99818   -1469.1356    199.33739    72.277351    62.594023    36.060182    108.18747   -311916.51 
     250    237.06768     163139.4    72.277122    72.277123    36.060067          120    18077.397    17994.127   -35564.521    547.62582   -733.13609    167.50222    72.277122    62.593825    36.060067      169.001   -311914.65 
     260    240.88148    163138.03     72.27692     72.27692    36.059966          120    18260.435    18174.253   -35479.941    876.27641   -534.03648    728.26575     72.27692    62.593649    36.059966    318.24911   -311918.87 
     270     241.4583    163136.91    72.276754    72.276755    36.059884          120    18007.232     18599.31   -36171.687     682.8962   -876.23355    277.26663    72.276754    62.593506    36.059884    144.95179   -311917.38 
     280     243.6054    163135.93    72.276609    72.276609    36.059811          120    17772.753    18370.803   -36779.526    478.04134   -1464.7083   -92.563193    72.276609     62.59338    36.059811    -211.9899   -311918.35 
     290    241.05098    163134.88    72.276453    72.276454    36.059734          120    17943.262    18346.719   -36646.629    686.44592   -1694.4786    426.87331    72.276453    62.593245    36.059734   -118.88272   -311910.69 
     300    240.12696    163133.79    72.276293    72.276293    36.059653          120    18471.321    18130.732   -36155.656    945.65092   -1303.2692     252.3761    72.276293    62.593106    36.059653    148.79904      -311906 
     310    242.17443    163132.84    72.276152    72.276153    36.059583          120    18772.489    18303.241   -35441.764    679.79659   -1541.2544    121.65289    72.276152    62.592984    36.059583    544.65513   -311907.14 
     320     243.8627    163132.24    72.276064    72.276064    36.059539          120    18794.518    18165.942   -35454.043      937.623   -1915.7285    634.25098    72.276064    62.592908    36.059539    502.13922   -311907.86 
     330    244.27274    163131.95    72.276021    72.276021    36.059518          120     18162.99    17571.117   -35928.124    1371.2573    -2023.903    708.61444    72.276021    62.592871    36.059518   -64.672158   -311907.23 
     340    245.18074    163131.69    72.275984    72.275984    36.059499          120    18164.988    17814.927   -35677.081     1404.861   -1685.0654    877.92165    72.275984    62.592838    36.059499    100.94473   -311906.15 
     350    246.42511    163131.51    72.275956    72.275956    36.059485          120    18411.681    17930.446   -35719.225    1235.6116   -1351.2299    1240.3606    72.275956    62.592814    36.059485    207.63394   -311906.18 
     360    247.01459    163131.45    72.275947    72.275947    36.059481          120    18410.064    18207.205   -35611.739    1493.2714    -1086.227    1032.3598    72.275947    62.592807    36.059481    335.17693    -311905.8 
     370    247.85272     163131.6    72.275969     72.27597    36.059492          120    18285.011    18425.719   -35162.802    1975.1475   -764.34618    484.38643    72.275969    62.592826    36.059492    515.97625   -311905.83 
     380     250.0482    163132.12    72.276047    72.276047    36.059531          120    18784.372    19852.778    -35109.06    1464.0882    -390.6869     85.42229    72.276047    62.592893    36.059531    1176.0301   -311908.78 
     390    250.19442    163133.34    72.276226    72.276226     36.05962          120    19280.732    19090.345   -35054.256    1287.2734   -380.37784   -265.64024    72.276226    62.593048     36.05962     1105.607   -311908.44 
     400     249.5263    163135.18    72.276498    72.276499    36.059756          120    19731.797    17420.364    -35467.73    1189.8817   -686.44681   -447.93363    72.276498    62.593284    36.059756    561.47705   -311906.91 
     410    249.00908    163137.33    72.276816    72.276817    36.059915          120     19348.11    17322.454   -35743.656     1266.477   -1130.2869    152.78106    72.276816     62.59356    36.059915    308.96918   -311905.48 
     420    248.24152    163139.59     72.27715    72.277151    36.060081          120    18174.857    17446.465   -35785.038    886.34819   -1918.4571     1013.404     72.27715    62.593849    36.060081   -54.571885   -311904.64 
     430    248.97533    163141.75    72.277469     72.27747     36.06024          120    17415.009    18288.858   -35942.404    374.92732   -1750.7598    1268.5796    72.277469    62.594125     36.06024   -79.512536    -311906.9 
     440    248.79293    163143.78    72.277768    72.277768    36.060389          120    17261.509    18559.003   -35824.628    605.49684   -1991.0299    2297.0252    72.277768    62.594384    36.060389   -1.3720415   -311907.67 
     450    248.46167    163145.72    72.278055    72.278056    36.060533          120    18137.815    17907.915   -35513.869    766.21652   -2520.6677    1444.3062    72.278055    62.594633    36.060533    177.28716   -311907.49 
     460    248.12579     163147.7    72.278347    72.278348    36.060678          120    18783.332    17912.959   -35921.678    900.17811   -2773.6458    998.22301    72.278347    62.594885    36.060678    258.20425   -311908.73 
     470    245.73831    163149.76    72.278651    72.278652     36.06083          120    18657.783    17521.717   -35654.592    1045.1159      -2518.6    994.09471    72.278651    62.595149     36.06083    174.96933   -311906.44 
     480    244.35994    163151.83    72.278958    72.278958    36.060983          120    17867.105    17053.258   -35052.448    597.46057   -1754.8015    651.20421    72.278958    62.595414    36.060983   -44.028305   -311905.68 
     490    245.18085    163153.83    72.279252    72.279253     36.06113          120    17647.586     17350.62   -34488.315    454.08675   -1505.7086   -23.588634    72.279252    62.595669     36.06113    169.96396   -311909.97 
     500    247.04509    163155.89    72.279556    72.279557    36.061282          120    17958.306    18757.905   -34558.461    985.03742    -1507.511   -152.77804    72.279556    62.595932    36.061282    719.24993   -311916.12 
     510    242.79998    163158.29    72.279911    72.279912    36.061459          120    18045.763    18925.146   -34673.603    1280.4912   -1391.8985    58.145128    72.279911     62.59624    36.061459    765.76843   -311910.56 
     520     244.7701    163161.08    72.280323    72.280323    36.061664          120    18214.992    18746.039   -35266.938    1088.7121   -1329.7052    332.30059    72.280323    62.596596    36.061664    564.69758   -311917.11 
     530    244.46682    163164.12    72.280772    72.280772    36.061888          120    18434.893    18179.756   -35557.375    1332.9973   -1570.0364     525.1624    72.280772    62.596985    36.061888    352.42477   -311919.67 
     540    244.53824    163167.31    72.281243    72.281244    36.062123          120    18893.428    18095.651   -35698.892    925.25089   -1586.1879     611.6825    72.281243    62.597394    36.062123    430.06218   -311922.84 
     550    242.82468    163170.63    72.281734    72.281734    36.062368          120    17989.798    18193.771   -36588.154    380.22922   -2226.9733    1010.2682    72.281734    62.597818    36.062368    -134.8618    -311922.7 
     560    242.16896    163173.75    72.282194    72.282195    36.062598          120    17238.304    17657.446    -36876.83    815.00375   -2539.7172     845.2055    72.282194    62.598217    36.062598   -660.35988   -311924.59 
     570    240.23754    163176.37     72.28258    72.282581     36.06279          120    18016.249    17411.692    -37032.15    1289.3762    -2296.803    877.35033     72.28258    62.598552     36.06279   -534.73641   -311924.39 
     580    239.68428    163178.57    72.282905    72.282906    36.062952          120    17855.932    17359.887   -35730.061    912.34858   -2218.3699    851.98348    72.282905    62.598833    36.062952   -171.41422   -311926.69 
     590    239.19731    163180.53    72.283196    72.283196    36.063097          120    17532.503    17332.836    -36043.59      1184.81   -1938.1663    312.91878    72.283196    62.599084    36.063097   -392.75051   -311928.88 
     600    239.84795    163182.19    72.283441    72.283441     36.06322          120    18222.038    17341.015   -36396.518    1203.8027   -1615.2473    540.64232    72.283441    62.599296     36.06322   -277.82145   -311933.08 
     610    236.65952    163183.66    72.283657    72.283658    36.063328          120    18570.717    18425.547   -35870.391     1080.408   -1471.2936     390.3924    72.283657    62.599484    36.063328    375.29097   -311929.97 
     620    237.33575    163185.27    72.283896    72.283896    36.063447          120     18004.34    18957.933   -35985.051    1642.2725   -1365.0763    -188.4084    72.283896    62.599691    36.063447    325.74081   -311934.06 
     630    236.72076    163187.04    72.284157    72.284157    36.063577          120    18544.544    18369.899   -36009.275    1545.8351   -1626.5726    309.23087    72.284157    62.599917    36.063577    301.72301   -311935.44 
     640    238.40298    163188.94    72.284436    72.284437    36.063716          120    19216.753    18119.012   -36472.318    1023.5496   -2473.7411    514.12878    72.284436    62.600159    36.063716    287.81551   -311941.16 
     650    235.56202    163190.97    72.284736    72.284736    36.063866          120    19570.892    18219.205   -36246.126      937.251   -2693.0715    298.77099    72.284736    62.600418    36.063866    514.65688   -311938.42 
     660    236.64207    163193.22    72.285068    72.285069    36.064032          120    19085.685    17668.903   -36010.729    1166.5254   -2273.5225    708.60629    72.285068    62.600706    36.064032    247.95274   -311943.02 
     670    234.13372    163195.57    72.285415    72.285416    36.064205          120    18062.865    17746.209   -35275.707    730.06231   -2048.4049    1031.0189    72.285415    62.601007    36.064205    177.78883   -311940.59 
     680    233.56387    163197.94    72.285766    72.285767     36.06438          120    17710.943    17954.343    -35462.69    1099.2822   -1830.0083    1187.6793    72.285766     62.60131     36.06438    67.532044    -311941.2 
     690    234.28093    163200.26    72.286108    72.286108     36.06455          120    17993.226    17752.825    -36009.86    1634.1035    -1838.828    778.53116    72.286108    62.601606     36.06455   -87.936184   -311943.83 
     700    233.46189    163202.47    72.286435    72.286435    36.064713          120    18218.406    17892.996   -35045.383    1173.7411   -1423.7208    341.65635    72.286435    62.601889    36.064713    355.33966   -311943.97 
     710    233.80205    163204.82    72.286781    72.286782    36.064886          120    18116.354    17714.252    -34579.24      588.156   -937.96907    406.45729    72.286781    62.602189    36.064886    417.12197   -311945.86 
     720    233.51597    163207.36    72.287157    72.287158    36.065074          120    18225.572    17710.708   -34629.298    571.23192   -1790.1637    605.17004    72.287157    62.602515    36.065074     435.6607   -311945.95 
     730    234.69745    163210.06    72.287556    72.287556    36.065273          120    17452.372    18102.271   -36245.368    716.77908   -1787.6082    462.83714    72.287556     62.60286    36.065273    -230.2413   -311949.48 
     740    231.83372    163212.54    72.287922    72.287922    36.065455          120    16695.978    18075.318   -36861.937    1208.2757   -2111.1818    404.69739    72.287922    62.603177    36.065455   -696.88063      -311944 
     750    233.66035    163214.54    72.288217    72.288218    36.065603          120    16978.393    17766.412   -36357.784    1286.1813   -2233.8097    739.16453    72.288217    62.603433    36.065603    -537.6598   -311947.25 
     760    233.42501    163216.15    72.288455    72.288455    36.065721          120    17842.901    17981.853    -35968.88    1264.5984   -2452.0427    856.35847    72.288455    62.603639    36.065721   -48.042224   -311947.01 
     770    234.22248     163217.7    72.288683    72.288684    36.065835          120    18647.953    18357.282    -34985.94    1000.3408   -2420.7915    1104.9406    72.288683    62.603837    36.065835    673.09834   -311948.08 
     780     234.5735    163219.56    72.288958    72.288959    36.065972          120    18430.724    18547.864   -35222.314    859.52884    -2139.448    1045.0023    72.288958    62.604075    36.065972    585.42459   -311948.46 
     790    235.78618    163221.73    72.289278    72.289279    36.066132          120    18463.257    17801.145   -35488.402    998.56569   -1994.2376    392.42547    72.289278    62.604352    36.066132     258.6665   -311950.25 
     800    235.34044    163223.98     72.28961    72.289611    36.066298          120    18151.022    17363.126   -36055.894    1058.0239   -1584.2927    138.72553     72.28961    62.604639    36.066298   -180.58229   -311948.21 
     810    233.68725    163226.06    72.289917    72.289917    36.066451          120    18177.475     17318.05   -36342.605    991.17599   -1656.2171    89.555497    72.289917    62.604905    36.066451    -282.3604   -311944.13 
     820    234.92698    163227.84     72.29018    72.290181    36.066582          120     18479.53    16133.433   -37122.272    1065.4887   -1522.2397   -333.51665     72.29018    62.605133    36.066582   -836.43628   -311945.29 
     830    235.91417    163229.07    72.290361    72.290362    36.066673          120    18882.175    16134.219   -37129.342     1049.868   -1827.9304     215.5112    72.290361     62.60529    36.066673   -704.31596    -311945.4 
     840    235.67788    163229.81    72.290471    72.290471    36.066727          120    17823.048    16997.297   -36905.656    691.43814   -1985.3534    832.64906    72.290471    62.605385    36.066727   -695.10356   -311943.47 
     850     236.8065    163230.05    72.290506    72.290507    36.066745          120     17319.84    16637.112    -37205.32    975.02266   -1818.0595    1252.2983    72.290506    62.605415    36.066745   -1082.7893    -311943.7 
     860    238.80215    163229.64    72.290446    72.290447    36.066715          120    17792.458    16918.868   -36450.157    1143.8209   -1683.7832    1555.5645    72.290446    62.605364    36.066715   -579.61044   -311945.67 
     870    238.15475     163228.9    72.290336    72.290337     36.06666          120    17809.292    18173.074   -35860.007    1300.4317   -1333.3442     791.7667    72.290336    62.605268     36.06666    40.786491   -311942.45 
     880    238.48767    163228.19    72.290231    72.290232    36.066608          120    17709.694    18283.448   -34902.919    1398.1197   -1722.7346   -131.51559    72.290231    62.605177    36.066608    363.40798   -311941.22 
     890    238.37187    163227.73    72.290163    72.290164    36.066574          120    18290.277    17967.325   -34545.565    1467.8075   -1361.8165    383.66763    72.290163    62.605118    36.066574    570.67918   -311938.59 
     900    239.67191    163227.62    72.290148    72.290148    36.066566          120    18362.138    18381.888   -35135.671    2118.5779   -1594.7171    469.35069    72.290148    62.605105    36.066566    536.11847   -311938.58 
     910    239.86393    163227.89    72.290188    72.290188    36.066586          120    18892.133    18773.351   -35639.766    2457.8296    -1203.255   -178.87823    72.290188     62.60514    36.066586    675.23935   -311937.26 
     920    241.58154    163228.56    72.290286    72.290286    36.066635          120    18078.527    18673.323   -36098.433     2071.742    -1460.885    184.81692    72.290286    62.605224    36.066635    217.80606   -311938.31 
     930    241.12511    163229.35    72.290404    72.290404    36.066694          120    17640.859    18175.786   -35438.607    1412.3608   -2134.6201     887.0937    72.290404    62.605327    36.066694    126.01286   -311935.59 
     940    243.13698    163230.26    72.290537    72.290537     36.06676          120    18802.319    18337.727   -34598.946    1337.6157   -2503.2107    442.11827    72.290537    62.605442     36.06676    847.03317   -311937.18 
     950    243.72398    163231.67    72.290745    72.290745    36.066864          120     19266.52    18702.965    -33952.37     1619.547    -2793.314    158.34045    72.290745    62.605622    36.066864    1339.0385   -311936.21 
     960    243.49902    163233.87     72.29107     72.29107    36.067026          120     19274.62    19021.065   -33831.774    1720.6339   -2024.5977    457.38343     72.29107    62.605903    36.067026    1487.9701   -311934.67 
     970    240.66866    163236.96    72.291526    72.291526    36.067253          120    19291.316    19207.912   -33582.573     1424.173   -1619.9564    75.149254    72.291526    62.606298    36.067253     1638.885   -311927.26 
     980    245.73617    163240.93    72.292112    72.292113    36.067546          120    18828.594    19061.364   -34908.126    995.64969   -1441.1311   -253.32362    72.292112    62.606807    36.067546    993.94394   -311935.15 
     990    244.83057    163245.42    72.292776    72.292776    36.067877          120    18216.554    19111.897   -36008.033    976.27946   -1195.1156   -443.17381    72.292776    62.607381    36.067877    440.13951   -311932.38 
    1000    246.18469     163250.1    72.293467    72.293467    36.068222          120    18283.605    18713.304    -35637.26    1107.6118     -1154.05   -400.32036    72.293467    62.607979    36.068222    453.21632   -311933.84 
    1010    243.51087    163254.97    72.294185    72.294186     36.06858          120    18697.264    18837.389    -34437.66    1278.3512   -1734.7663   -298.77444    72.294185    62.608602     36.06858    1032.3311   -311927.37 
    1020    246.75855    163260.31    72.294973    72.294974    36.068973          120    19250.119    19071.695   -34520.709    1623.5426   -2396.2786    311.98167    72.294973    62.609284    36.068973    1267.0351   -311932.51 
    1030    244.63354    163266.26    72.295852    72.295852    36.069412          120    19371.948     18757.89   -35173.912    1819.0299    -2254.233    787.66664    72.295852    62.610045    36.069412     985.3088   -311928.43 
    1040    244.32479    163272.65    72.296795    72.296796    36.069882          120    19202.974    18249.646   -35646.163    1638.5338   -2428.7302    636.70244    72.296795    62.610862    36.069882     602.1522   -311927.89 
    1050    245.50739    163279.23    72.297766    72.297767    36.070367          120    18815.074    17497.313   -35494.995    1363.2466   -2282.3864    761.73201    72.297766    62.611703    36.070367    272.46401   -311929.58 
    1060    246.13919    163285.79    72.298734    72.298734     36.07085          120    19222.827    17226.526   -36309.108    1604.4643   -1988.9939    1095.1591    72.298734    62.612541     36.07085    46.748228   -311930.78 
    1070     247.2277    163292.19    72.299679    72.299679    36.071321          120    19336.691    17770.716    -36822.19    1426.2757   -2368.4624    731.01655    72.299679    62.613359    36.071321    95.072324   -311933.27 
    1080    246.18631    163298.48    72.300607    72.300607    36.071784          120    18888.215    18538.661   -36445.898    1804.1775   -2709.8929    434.27258    72.300607    62.614163    36.071784    326.99277   -311931.19 
    1090    244.57212    163304.75    72.301532    72.301533    36.072246          120    18312.731    18436.305   -36653.035    1939.7156   -2602.0287    921.84838    72.301532    62.614964    36.072246    32.000318   -311928.77 
    1100    246.13555    163310.87    72.302435    72.302435    36.072696          120     17926.82    18606.277   -36938.634    1901.8441   -2378.7853     1007.143    72.302435    62.615746    36.072696   -135.17879   -311932.94 
    1110     242.5256    163316.75    72.303303    72.303303    36.073129          120    18270.551    18873.136   -36559.611    2161.6131   -2118.0892    1273.0648    72.303303    62.616497    36.073129    194.69208   -311927.48 
    1120    244.20655    163322.53    72.304156    72.304157    36.073555          120    18258.834    18416.709   -37111.042     1394.455   -2598.7662    609.30022    72.304156    62.617237    36.073555   -145.16642   -311932.15 
    1130    242.94542    163328.03    72.304968    72.304968     36.07396          120    17706.541    17224.717   -37308.528    1354.0419   -2790.2766      344.512    72.304968    62.617939     36.07396   -792.42343   -311931.46 
    1140    242.89721    163332.88    72.305683    72.305683    36.074317          120    17206.947     16982.62   -37466.149    1510.4646   -2793.2444    1169.1224    72.305683    62.618559    36.074317    -1092.194   -311932.72 
    1150    242.24765     163336.9    72.306276    72.306276    36.074612          120    17113.954    17142.411   -37574.057    1383.0105   -2428.4038     1429.547    72.306276    62.619072    36.074612   -1105.8976   -311933.52 
    1160    244.77609    163340.13    72.306752    72.306753     36.07485          120    17755.261    17229.812   -36506.103    1402.1918   -2131.2215    1258.2818    72.306752    62.619485     36.07485   -507.01014   -311940.42 
    1170    239.88095    163342.92    72.307165    72.307165    36.075056          120    18225.122    17359.283   -35808.608    1272.9731   -1890.0822    1161.5273    72.307165    62.619842    36.075056   -74.734399   -311933.06 
    1180    240.86776    163345.58    72.307557    72.307558    36.075252          120    18371.458    17405.309   -35492.391    1011.9137   -2393.8066    1113.8434    72.307557    62.620182    36.075252     94.79197   -311937.14 
    1190    241.75853    163348.18    72.307941    72.307942    36.075443          120    17493.921    16952.608   -35989.505    1027.0179   -2712.2642    1113.9826    72.307941    62.620515    36.075443   -514.32544   -311940.28 
    1200    242.25988    163350.39    72.308267    72.308267    36.075606          120    16669.125    16952.382   -36746.789     1719.195   -2435.7598    1693.8796    72.308267    62.620797    36.075606   -1041.7606    -311943.3 
    1210    239.84388     163351.9     72.30849     72.30849    36.075717          120     17222.14     16752.99   -36685.381    1851.6108   -1789.8171    1152.0003     72.30849     62.62099    36.075717   -903.41706   -311940.96 
    1220    241.16022    163352.79     72.30862    72.308621    36.075782          120    17741.768    16771.475   -36308.789    1725.9664   -2063.6267    518.44859     72.30862    62.621103    36.075782   -598.51568   -311945.13 
    1230    239.43288    163353.27    72.308693    72.308693    36.075818          120     18110.41    16950.991   -35801.149    1607.3735   -2013.1728    451.70787    72.308693    62.621165    36.075818   -246.58256   -311943.74 
    1240    239.44537    163353.54    72.308732    72.308733    36.075838          120    17231.651    17256.817   -36401.874    1682.8213   -1960.6657    427.36787    72.308732      62.6212    36.075838   -637.80191   -311945.92 
    1250    239.46288     163353.4    72.308711    72.308712    36.075827          120    17328.877     16861.47   -37148.808    1495.8364   -2562.6827    274.61445    72.308711    62.621181    36.075827   -986.15354   -311948.04 
    1260    236.51199    163352.63    72.308598    72.308598    36.075771          120    17269.165    16908.455   -37700.376    1949.6636   -2500.5023    439.90753    72.308598    62.621083    36.075771   -1174.2516   -311943.87 
    1270    235.66372    163351.14    72.308378    72.308378    36.075661          120    17457.423    16846.462   -37765.975    2011.4377   -2326.5542    721.58214    72.308378    62.620893    36.075661   -1154.0302   -311944.16 
    1280    235.45472       163349    72.308062    72.308062    36.075503          120    17606.055    17523.498    -36905.57    1987.9471   -1365.9803    869.95958    72.308062    62.620619    36.075503   -592.00552   -311945.67 
    1290    239.52041    163346.48     72.30769    72.307691    36.075318          120    16673.292    17852.787   -36780.749    1939.7933   -1307.4581    1749.4713     72.30769    62.620297    36.075318   -751.55671   -311954.99 
    1300    234.49977    163343.59    72.307264    72.307264    36.075105          120      16893.8    17497.894   -36226.851    1870.3314   -1572.2284    1471.4944    72.307264    62.619928    36.075105   -611.71889   -311946.86 
    1310    238.34701     163340.4    72.306793    72.306793     36.07487          120    17121.897    17596.928   -35536.293    1782.0963   -1986.2862    1324.0807    72.306793     62.61952     36.07487   -272.48927   -311956.42 
    1320    237.17757    163337.13     72.30631    72.306311    36.074629          120    16992.967    18043.023   -34908.401    1886.1753   -2621.4884    821.93097     72.30631    62.619102    36.074629    42.529589   -311955.13 
    1330    236.43679     163333.9    72.305834    72.305835    36.074392          120    17282.926    17301.807   -36198.605    1806.3977   -1961.5759    705.75561    72.305834     62.61869    36.074392   -537.95728   -311954.69 
    1340    234.03746    163330.46    72.305326    72.305327    36.074139          120    17784.499    17316.463   -37110.154    1248.3744   -1958.2461    240.97254    72.305326     62.61825    36.074139   -669.73045   -311950.81 
    1350    236.32769    163326.67    72.304767    72.304768     36.07386          120    17257.749    17592.614    -37500.21    1195.3961   -2494.1937    388.31262    72.304767    62.617766     36.07386   -883.28245   -311955.95 
    1360    234.33616    163322.46    72.304146    72.304146     36.07355          120    17419.449    18082.485   -37404.493    825.23405   -2648.2033    563.29297    72.304146    62.617228     36.07355   -634.18643   -311952.55 
    1370    235.54331    163317.98    72.303484    72.303485     36.07322          120    18233.771    18458.609   -36867.077     656.1145   -3003.5823   -63.266943    72.303484    62.616655     36.07322   -58.232266      -311955 
    1380    233.89078    163313.56    72.302833    72.302833    36.072895          120     18575.58    18546.545   -36298.835    730.77651    -2316.332   -275.90843    72.302833    62.616091    36.072895    274.42971   -311951.93 
    1390    234.49574    163309.41    72.302219     72.30222    36.072589          120    17861.527    18174.371    -36122.72    1354.4141   -1665.4664   -186.33342    72.302219    62.615559    36.072589   -28.940672   -311952.97 
    1400    236.22564    163305.33    72.301618    72.301618    36.072288          120    17449.481    17617.622   -36494.369    1591.4698   -1529.6459    910.67972    72.301618    62.615038    36.072288   -475.75513   -311956.52 
    1410    235.53164    163301.11    72.300995    72.300996    36.071978          120    17398.965    17815.345   -36055.882    1826.8027   -1321.8414    1396.0475    72.300995    62.614499    36.071978   -280.52389   -311954.88 
    1420    235.90577    163296.84    72.300365    72.300366    36.071664          120    18470.546    18073.715   -36330.892    1912.4279   -1584.4436    728.92089    72.300365    62.613954    36.071664    71.123121   -311954.72 
    1430    235.65905    163292.75    72.299762    72.299762    36.071362          120    19294.111    18318.077   -36153.068    2013.0742   -1987.1074  -0.63588766    72.299762    62.613431    36.071362    486.37302   -311953.69 
    1440    235.64153    163289.04    72.299214    72.299215    36.071089          120    19147.804    18323.777   -36717.992    1895.9569     -2439.43    807.91738    72.299214    62.612957    36.071089    251.19625   -311952.94 
    1450    238.25683    163285.61    72.298707    72.298708    36.070836          120    18733.347    18466.292   -36828.062    1686.1381   -2245.6813     1629.756    72.298707    62.612518    36.070836    123.85879   -311956.81 
    1460    235.20399    163282.34    72.298224    72.298225    36.070595          120    18144.029    18441.001    -36948.56    1855.2491   -2052.6607    1380.7738    72.298224      62.6121    36.070595   -121.17664   -311949.63 
    1470    235.85006    163279.07    72.297743    72.297743    36.070355          120    18206.692     18135.41   -36920.744    1643.6291   -2210.1173    758.89437    72.297743    62.611682    36.070355   -192.88054   -311949.74 
    1480    238.19971    163275.81    72.297261    72.297262    36.070115          120    18459.128    17881.336   -35605.398    1541.7836   -1609.0505    886.64541    72.297261    62.611266    36.070115    245.02189   -311952.29 
    1490     238.7355    163272.79    72.296816    72.296816    36.069893          120    19165.693    17550.332   -35037.967    1543.7787   -1697.3042    1188.7919    72.296816    62.610879    36.069893    559.35286   -311952.09 
    1500    239.52807    163270.22    72.296436    72.296437    36.069703          120    18705.896    18580.522   -34484.162    1581.5811   -1424.8347    1049.1965    72.296436    62.610551    36.069703    934.08507   -311952.21 
    1510     238.6453    163268.25    72.296145    72.296145    36.069558          120     18274.45    18533.034   -35840.328    1116.2241   -2033.4835    914.77776    72.296145    62.610299    36.069558    322.38523   -311949.21 
    1520    236.11714    163266.56    72.295895    72.295896    36.069433          120    17605.498    18899.383   -36498.021    1083.8008   -2312.2634    468.24375    72.295895    62.610083    36.069433    2.2863081   -311942.68 
    1530    241.85161    163264.92    72.295654    72.295654    36.069313          120    17682.207     18861.89     -36970.1    1538.3366   -2480.5799    470.54353    72.295654    62.609874    36.069313   -142.00066   -311951.73 
    1540    238.53502    163263.26    72.295409    72.295409    36.069191          120     17867.25    18870.261   -36470.966    1296.2764   -2551.6221    1213.7656    72.295409    62.609661    36.069191    88.848312   -311943.79 
    1550    239.37349     163261.7    72.295178    72.295179    36.069076          120    18562.839    19070.729   -35892.144    1034.7988   -1882.7681    1757.1645    72.295178    62.609462    36.069076    580.47476   -311943.89 
    1560    240.07421    163260.52    72.295004    72.295005    36.068989          120    18597.689    18970.142   -35340.919    982.99913   -2005.4834    1803.1311    72.295004    62.609311    36.068989    742.30437   -311942.64 
    1570    240.56491    163259.86    72.294907    72.294907     36.06894          120    18561.043    19022.153   -34625.558    1490.2176   -1966.6191    1579.6495    72.294907    62.609226     36.06894    985.87934      -311942 
    1580    240.25568    163259.84    72.294904    72.294905    36.068939          120    18462.314    19074.666   -34570.001    1732.4291   -2132.0594    1268.4793    72.294904    62.609224    36.068939    988.99302   -311939.81 
    1590    243.96133    163260.45    72.294994    72.294995    36.068984          120    18011.158    18835.654   -34648.649    1327.2134   -1908.1111    588.40531    72.294994    62.609302    36.068984      732.721   -311945.02 
    1600    243.12052    163261.51     72.29515     72.29515    36.069061          120    17893.399    18568.428   -35705.657    975.13676   -1779.6419    575.13564     72.29515    62.609437    36.069061    252.05643   -311942.18 
    1610    242.24826    163262.69    72.295325    72.295325    36.069149          120    17346.144    18529.696   -36682.235    918.32137   -2569.2979    664.82808    72.295325    62.609588    36.069149   -268.79839   -311938.61 
    1620    241.03572     163263.7    72.295474    72.295475    36.069223          120    17477.365    18516.911   -37097.221    851.16996   -2573.0996    1242.3452    72.295474    62.609718    36.069223   -367.64834   -311935.36 
    1630    242.18264    163264.43    72.295582    72.295582    36.069277          120    17587.891    17516.729   -37124.205    1292.6412   -2181.6413    1058.9167    72.295582    62.609811    36.069277   -673.19517   -311935.68 
    1640    244.87861    163264.75    72.295629     72.29563    36.069301          120     18577.52    17010.827   -36529.076    1690.6616    -2065.614    783.51804    72.295629    62.609852    36.069301   -313.57661   -311939.82 
    1650    244.78024    163264.87    72.295645    72.295646    36.069309          120    18736.532    17567.915    -35840.93    1609.3621   -2515.8176    1016.9752    72.295645    62.609866    36.069309    154.50555   -311938.83 
    1660    245.30118    163265.08    72.295677    72.295677    36.069324          120    18773.907    18139.696   -35061.051    1301.1255   -2254.5668     1805.949    72.295677    62.609893    36.069324    617.51715   -311938.73 
    1670     244.1366    163265.66    72.295763    72.295764    36.069368          120    18419.753    18314.961   -34442.544    1119.4672   -2434.4343     1690.994    72.295763    62.609968    36.069368    764.05683   -311936.17 
    1680    244.91217    163266.72     72.29592     72.29592    36.069446          120    18605.536    18760.495   -35163.531    1338.9612   -2825.5929     1409.929     72.29592    62.610104    36.069446    734.16653   -311937.19 
    1690    245.84018    163268.22    72.296141    72.296142    36.069556          120    18358.452    18834.637   -35216.789    1555.6018   -2335.5362     1221.895    72.296141    62.610296    36.069556    658.76691   -311938.52 
    1700     245.9241    163270.11    72.296419     72.29642    36.069695          120     18238.18    18735.887    -35012.35     1926.827   -2350.1606    497.46728    72.296419    62.610536    36.069695    653.90583   -311938.56 
    1710    245.07282    163272.35     72.29675    72.296751     36.06986          120    18614.485     18566.36     -35241.9    2216.8914   -1722.5891    683.48586     72.29675    62.610823     36.06986    646.31463   -311937.08 
    1720    246.03493    163274.96    72.297135    72.297136    36.070052          120    18647.465    18955.689   -35397.756    1566.9231   -1782.9057    984.61138    72.297135    62.611156    36.070052    735.13289   -311939.19 
    1730    244.03625    163277.96    72.297577    72.297578    36.070273          120    18491.704    19250.717   -35723.342    1252.8888   -2073.3085    795.26876    72.297577    62.611539    36.070273    673.02621   -311935.81 
    1740    244.63926    163281.31    72.298073    72.298073     36.07052          120    18538.745    18733.407   -35522.252    1315.0376   -1891.7684    679.07065    72.298073    62.611968     36.07052    583.29989   -311937.48 
    1750    243.51537       163285    72.298618    72.298618    36.070792          120    18872.247    18779.335   -34782.868    1155.5026   -1634.0017    519.16862    72.298618     62.61244    36.070792     956.2377   -311935.97 
    1760    244.68799    163289.18    72.299234    72.299234    36.071099          120    18587.339    18317.598     -34988.2    1540.2023   -1615.0883    861.56502    72.299234    62.612974    36.071099    638.91245    -311939.2 
    1770    245.03775    163293.66    72.299895    72.299896    36.071429          120    18860.484     17838.13   -36165.689    1577.8628   -1982.0451    535.96367    72.299895    62.613546    36.071429    177.64178    -311941.1 
    1780    242.95609     163298.1    72.300551    72.300552    36.071756          120     17758.11    17267.576   -37288.871    1295.4199   -2546.2949    1138.6232    72.300551    62.614114    36.071756   -754.39522   -311938.79 
    1790    243.03417    163301.97    72.301122    72.301123    36.072041          120    17230.921    16921.445   -37846.368    1629.0128   -2499.3464    1290.8577    72.301122    62.614609    36.072041   -1231.3339   -311940.58 
    1800    242.99529    163305.03    72.301573    72.301574    36.072266          120    17964.679    17368.146   -36849.795    1263.2119   -2020.4974    877.03588    72.301573       62.615    36.072266   -505.65648   -311941.98 
    1810    239.85562    163307.69    72.301965    72.301966    36.072462          120    18681.879    18447.777   -35890.247    1316.8047   -2112.4575    680.01104    72.301965    62.615339    36.072462     413.1363   -311937.33 
    1820    242.08214    163310.48    72.302378    72.302379    36.072668          120    18590.993    18844.275   -35867.113    1625.9955   -2538.6775    869.31866    72.302378    62.615697    36.072668    522.71831   -311943.56 
    1830    242.03424    163313.53    72.302828    72.302829    36.072892          120    19252.727    18522.615    -36317.56    1661.2204   -3115.5173    1391.8131    72.302828    62.616087    36.072892    485.92731   -311945.03 
    1840    241.08299    163316.84    72.303316    72.303316    36.073136          120    19592.099    18733.923   -36487.493    2231.8442   -2863.5897    1415.1559    72.303316    62.616509    36.073136    612.84319   -311945.31 
    1850    238.49195    163320.41    72.303844    72.303844    36.073399          120    19277.352    18507.481   -36621.684    2216.0539   -2682.8953    972.63091    72.303844    62.616966    36.073399    387.71625   -311942.13 
    1860    242.22682    163324.17    72.304398    72.304399    36.073676          120    18833.287    18838.689   -36315.424    2245.2441   -2567.1683    807.84443    72.304398    62.617446    36.073676    452.18402   -311951.13 
    1870    239.89973    163328.11    72.304979     72.30498    36.073965          120     18508.44    18495.401   -36206.096    2142.8648   -2050.6831    1145.1179    72.304979    62.617949    36.073965    265.91529   -311948.78 
    1880    236.28558    163332.16    72.305577    72.305578    36.074264          120    18870.418    18741.304   -36056.433    1637.5954    -2120.426    1072.9213    72.305577    62.618467    36.074264    518.42987   -311943.53 
    1890    237.62958    163336.42    72.306206    72.306206    36.074577          120    18884.294    18505.755   -36004.169    1580.5248   -2318.9688    977.89224    72.306206    62.619012    36.074577    461.96011   -311947.38 
    1900    240.26259    163340.89    72.306865    72.306866    36.074906          120     18959.64    18519.169   -35923.252    2187.0291   -2980.9311    1154.2237    72.306865    62.619583    36.074906    518.51903   -311953.95 
    1910    237.44979    163345.59    72.307559    72.307559    36.075252          120    18112.816    18769.654   -35667.104     2448.164   -3223.5973    1243.7667    72.307559    62.620183    36.075252    405.12188   -311950.33 
    1920    238.12447    163350.42    72.308272    72.308272    36.075608          120    17899.954    18260.242   -35530.942    2704.1246   -2463.2405    745.31081    72.308272    62.620801    36.075608    209.75134   -311953.31 
    1930    238.19461    163355.28    72.308989    72.308989    36.075966          120    18057.923    18110.719   -35522.582    2376.6295   -2786.2616    1068.9263    72.308989    62.621422    36.075966    215.35326   -311954.78 
    1940    236.06805    163360.11    72.309701    72.309701    36.076321          120    17471.276    17153.302   -35989.492    1735.2083   -3289.9644     1252.053    72.309701    62.622039    36.076321   -454.97147   -311951.68 
    1950    237.94712    163364.56    72.310358    72.310358    36.076649          120    17193.214    17326.576   -36178.664    910.08639   -3061.8063    1331.6325    72.310358    62.622607    36.076649   -552.95784   -311956.78 
    1960    235.65282    163368.57    72.310949    72.310949    36.076944          120    17803.664    17754.083   -35867.907    873.95583   -2978.2628    1442.6265    72.310949    62.623119    36.076944   -103.38658   -311953.43 
    1970    235.00825    163372.39    72.311512    72.311513    36.077225          120    17923.004    17913.042   -35895.442    1403.8315   -2417.4316    1083.3392    72.311512    62.623607    36.077225   -19.798702   -311953.18 
    1980    237.82094    163376.06    72.312055    72.312056    36.077496          120    17497.983    17977.246   -36457.808    1419.1317   -1911.7405    611.79856    72.312055    62.624077    36.077496   -327.52655    -311959.3 
    1990    235.94962    163379.46    72.312556    72.312557    36.077746          120    17437.996    17737.339   -36483.109    1621.5167   -2289.0318    362.64091    72.312556    62.624511    36.077746    -435.9247   -311956.06 
    2000    237.47518    163382.46    72.312999    72.312999    36.077967          120    17305.715    16760.645   -37060.116      1673.75   -2044.9072     818.7887    72.312999    62.624895    36.077967   -997.91851    -311959.3 
    2010    234.96216    163384.78    72.313341    72.313342    36.078137          120    17262.075    16282.057   -36648.595    1732.0924   -1900.4008    883.03596    72.313341    62.625191    36.078137   -1034.8213   -311955.28 
    2020    234.39285    163386.39    72.313578    72.313579    36.078256          120    17630.811    16706.631   -36732.051    1806.8881   -2285.9524    1149.7793    72.313578    62.625397    36.078256   -798.20302   -311954.46 
    2030     236.1928    163387.46    72.313736    72.313737    36.078334          120    17282.634    17303.684   -36075.668    2262.7515   -2768.7389    1114.7818    72.313736    62.625533    36.078334   -496.44988   -311958.02 
    2040    235.91905    163388.18    72.313842    72.313843    36.078387          120    17047.646    17624.059   -36198.798     2085.896   -2757.8789    1484.0807    72.313842    62.625625    36.078387   -509.03109   -311956.98 
    2050     234.4235    163388.56    72.313898    72.313899    36.078415          120    17592.355    17262.455   -36441.367    2269.8132   -3017.4251    1170.4928    72.313898    62.625674    36.078415   -528.85202   -311954.21 
    2060    235.29038    163388.57    72.313901    72.313901    36.078417          120    17848.802    16694.803   -36878.928     2140.238   -3239.1139    1488.2233    72.313901    62.625676    36.078417   -778.44117   -311955.17 
    2070    235.97735     163388.1     72.31383    72.313831    36.078381          120    17387.849    16823.969   -37399.565     1600.155   -2594.3503    2178.3745     72.31383    62.625615    36.078381   -1062.5825   -311956.03 
    2080    235.95707    163386.95    72.313661    72.313662    36.078297          120    16995.932    16646.909   -37470.846    1732.7244   -2004.2192    1484.0797    72.313661    62.625469    36.078297   -1276.0019   -311954.96 
    2090    235.38442    163385.03    72.313378    72.313379    36.078156          120    16345.716    17072.217   -37294.279    1895.4668   -2070.1289    1182.7754    72.313378    62.625223    36.078156   -1292.1152   -311952.66 
    2100    236.05213    163382.35    72.312982    72.312983    36.077958          120    16436.176    17242.548   -36805.246    2075.1605   -1758.2792    590.34867    72.312982     62.62488    36.077958   -1042.1739   -311952.98 
    2110    236.19412    163379.08      72.3125    72.312501    36.077718          120    17216.715    17988.775   -36591.884    2109.6133   -1878.8611    879.69364      72.3125    62.624463    36.077718   -462.13135   -311951.78 
    2120    238.97378    163375.58    72.311984    72.311985     36.07746          120    17966.075    18020.361   -35955.358    2289.2278   -2896.5496     1180.025    72.311984    62.624016     36.07746    10.359487   -311955.31 
    2130    238.23255    163372.15    72.311477    72.311478    36.077207          120    18510.615    17728.239   -35622.784    1970.4308   -2209.5054    1190.1116    72.311477    62.623577    36.077207    205.35631   -311952.54 
    2140    240.75086     163368.9    72.310999    72.310999    36.076969          120    18243.283     18697.32    -36932.13    1913.9343   -2156.1783    1578.3687    72.310999    62.623162    36.076969    2.8243202   -311955.09 
    2150    239.86075    163365.69    72.310525    72.310526    36.076732          120    17583.471    18495.337   -38231.901    1680.7711   -2268.8646     1682.542    72.310525    62.622752    36.076732   -717.69768   -311951.37 
    2160    238.51231    163362.14    72.310001    72.310001    36.076471          120    16811.986    17942.837   -37448.331    1361.7163    -2195.163    2181.9663    72.310001    62.622298    36.076471   -897.83585   -311947.58 
    2170    240.41136     163358.1    72.309404    72.309404    36.076173          120    16503.128    17813.396   -36957.224    1697.6984   -2724.7035    1859.1748    72.309404    62.621781    36.076173   -880.23335   -311950.13 
    2180    241.21588    163353.64    72.308747    72.308747    36.075845          120    18010.042    17916.328   -36096.808     1713.799    -2872.566    1303.4873    72.308747    62.621212    36.075845   -56.812694   -311950.26 
    2190    239.66866    163349.25    72.308099    72.308099    36.075522          120    18637.264    18058.846   -35176.954    1368.3748   -2965.0626    1021.6118    72.308099    62.620651    36.075522    506.38559   -311945.64 
    2200    241.10587    163345.27    72.307511    72.307512    36.075229          120    18390.819     18149.12   -34592.839    1316.9257   -3169.2613    205.65341    72.307511    62.620142    36.075229    649.03345   -311946.99 
    2210    241.18492    163341.75    72.306992    72.306993     36.07497          120    18524.679    18105.465   -35847.675    1531.3558   -3238.4996    428.86895    72.306992    62.619693     36.07497     260.8231    -311945.5 
    2220    240.37669    163338.49    72.306511    72.306512     36.07473          120    18332.783    18162.632   -36544.587    1756.6912   -2728.2753    1059.0134    72.306511    62.619276     36.07473   -16.390413   -311942.47 
    2230    241.13564     163335.3     72.30604    72.306041    36.074495          120    17804.162    18413.107   -36678.904    2063.4319   -2644.2429     1504.674     72.30604    62.618868    36.074495   -153.87855   -311942.62 
    2240    241.28247    163332.09    72.305567    72.305567    36.074259          120    18181.134    18078.069   -36098.035    2004.7633   -2988.4583    1454.6093    72.305567    62.618458    36.074259    53.722705   -311941.57 
    2250    245.11067    163329.01    72.305113    72.305113    36.074032          120    18644.759    18616.942   -35320.373     2238.956   -2744.8702    2029.3257    72.305113    62.618065    36.074032    647.10944   -311947.58 
    2260    244.03435    163326.41    72.304729    72.304729    36.073841          120     19397.79    18594.553    -35201.74    1901.7066   -2012.8988    1695.5306    72.304729    62.617733    36.073841    930.20094    -311944.3 
[...]
   99200    239.91471    163554.22     72.33833    72.338331    36.090605          120    19737.134    19507.916   -36142.478    1171.8623   -2032.4213    1972.7617     72.33833    62.646832    36.090605    1034.1906   -311987.02 
   99210     239.1646    163553.74    72.338259    72.338259    36.090569          120    19307.984    18855.627   -36471.254    976.45076   -2105.5173    2157.0097    72.338259     62.64677    36.090569    564.11915   -311985.93 
   99220    238.34744    163553.59    72.338238    72.338238    36.090559          120    18362.984     18224.86     -37017.9    1311.4078   -1893.4432    1462.1116    72.338238    62.646752    36.090559   -143.35197   -311984.25 
   99230    239.43847    163553.38    72.338206    72.338207    36.090543          120    17702.815    18200.703   -37214.717      1134.05   -2025.7126    1178.8112    72.338206    62.646725    36.090543    -437.0663   -311986.11 
   99240    239.78105    163552.94    72.338142    72.338142    36.090511          120    17939.686    18390.614   -36204.587    1042.8209   -2431.4191    1493.8041    72.338142    62.646669    36.090511    41.904194   -311986.19 
   99250    240.88128     163552.5    72.338077    72.338077    36.090478          120    18364.537    18274.145   -36301.427    585.52141   -2548.3158    1073.1044    72.338077    62.646613    36.090478    112.41839   -311988.48 
   99260      239.495    163552.15    72.338026    72.338026    36.090453          120    19398.467    18163.542   -35975.538    404.48676   -2151.6861    1667.0856    72.338026    62.646569    36.090453    528.82353   -311985.41 
   99270     240.2361    163552.16    72.338026    72.338027    36.090453          120    19405.474    19075.813   -35820.658    490.47137   -2434.1456     2229.764    72.338026    62.646569    36.090453    886.87631   -311986.49 
   99280    239.22487    163552.73    72.338111    72.338111    36.090495          120    18981.411     19653.22   -36085.843    979.77706   -2555.0682    1973.6812    72.338111    62.646642    36.090495    849.59584   -311984.45 
   99290     241.3967    163553.88     72.33828    72.338281     36.09058          120    19233.534    20007.793   -36189.582    1383.4123   -2203.8255    2101.4145     72.33828    62.646789     36.09058    1017.2482   -311988.33 
   99300    238.97245    163555.68    72.338545    72.338546    36.090712          120     18818.59    20030.785     -36082.9    1431.3211   -1967.1483    1865.5806    72.338545    62.647018    36.090712    922.15828   -311983.63 
   99310    240.42043    163558.09      72.3389    72.338901    36.090889          120    18546.094    19906.145   -35862.125     1352.666   -2318.1812    1683.3442      72.3389    62.647326    36.090889    863.37109   -311986.48 
   99320    239.14278    163561.06    72.339339     72.33934    36.091108          120    18190.542      19982.2   -35880.161    1264.5131   -2005.4281    1576.0672    72.339339    62.647706    36.091108    764.19378   -311983.39 
   99330    238.42155    163564.54    72.339851    72.339852    36.091364          120    18051.068    19541.204   -35433.895    998.60955   -2076.4298    1826.0945    72.339851     62.64815    36.091364    719.45887      -311982 
   99340    240.99172    163568.48    72.340433    72.340433    36.091654          120     18108.85    19481.382   -34568.029    1650.1695    -2218.703    1817.6392    72.340433    62.648653    36.091654    1007.4006   -311987.18 
   99350    240.90109     163573.1    72.341113    72.341113    36.091993          120    18778.949    19491.213   -33964.555     2003.661   -1393.9508    1452.0078    72.341113    62.649242    36.091993    1435.2024   -311985.99 
   99360     240.8849    163578.56    72.341918    72.341918    36.092395          120    18431.732    18703.456   -35497.679    1441.9194   -1928.5241    1595.6581    72.341918    62.649939    36.092395    545.83624      -311986 
   99370     239.1295    163584.39    72.342777    72.342778    36.092824          120    17410.023    17867.015   -36269.698    1156.4079   -2281.7704    1192.3816    72.342777    62.650684    36.092824   -330.88678    -311982.3 
   99380     241.3931    163590.05    72.343612    72.343612     36.09324          120     17417.58    17855.087    -36509.34    1005.0842   -2403.6839    1505.6682    72.343612    62.651406     36.09324   -412.22409   -311985.98 
   99390    240.50898    163595.51    72.344417    72.344417    36.093641          120    18462.255    19215.858   -36475.274    1232.8624   -2398.2425    1651.3648    72.344417    62.652103    36.093641    400.94618   -311983.64 
   99400    241.20626    163601.22    72.345259     72.34526    36.094062          120    19296.009    18711.146   -35535.043    1760.2192   -2168.4796    2084.5232    72.345259    62.652833    36.094062    824.03761   -311984.45 
   99410    240.49383    163607.42    72.346172    72.346173    36.094517          120    17906.399    18690.235   -36093.497    1646.4942   -2219.0547    1336.3754    72.346172    62.653623    36.094517    167.71236   -311982.78 
   99420    242.20294    163613.72    72.347101    72.347101    36.094981          120    17057.977    18427.294   -37434.095    1687.3933   -2599.6841    1325.2556    72.347101    62.654428    36.094981   -649.60832   -311985.54 
   99430    241.03793    163619.63    72.347972    72.347973    36.095415          120    16987.805    18080.037   -37975.597    785.37702   -2762.1309     804.7246    72.347972    62.655182    36.095415   -969.25158   -311983.09 
   99440    242.24641    163624.95    72.348757    72.348758    36.095807          120    17015.632    17951.655   -36873.847    469.43738    -2579.243    1004.2983    72.348757    62.655862    36.095807   -635.52013   -311985.29 
   99450    241.14662    163629.89    72.349485    72.349486     36.09617          120     18179.07    19017.485   -36543.572    738.61837   -2243.1553    1340.1646    72.349485    62.656493     36.09617     217.6608   -311983.21 
   99460    241.01902    163634.97    72.350233    72.350234    36.096543          120    19004.131    19610.711   -35597.285    718.30155    -2918.162    1488.5589    72.350233    62.657141    36.096543    1005.8524   -311982.81 
   99470    241.17967    163640.66    72.351071    72.351072    36.096962          120    19064.349    19203.652    -35348.21    771.26522   -2342.0092    1895.6191    72.351071    62.657867    36.096962    973.26357   -311982.99 
   99480    240.21501    163646.95    72.351999    72.351999    36.097424          120    18624.868    18742.621   -36450.122    1007.8942   -1707.4598    2018.4531    72.351999     62.65867    36.097424    305.78889    -311980.8 
   99490    240.70301    163653.45    72.352956    72.352957    36.097902          120    18279.434     18351.35   -37272.132     1136.864   -1946.0587    1901.8896    72.352956    62.659499    36.097902   -213.78263   -311981.95 
   99500    241.92401    163659.86    72.353902    72.353902    36.098374          120    17966.285    19015.238   -36642.946    1298.9339   -1994.4145      1313.95    72.353902    62.660318    36.098374    112.85923   -311984.78 
   99510    241.74402    163666.32    72.354853    72.354853    36.098848          120        17608    18702.152   -36554.897    1129.7102   -1744.5828    1137.5113    72.354853    62.661141    36.098848   -81.581724   -311984.24 
   99520    240.61492    163672.74    72.355799      72.3558     36.09932          120     17832.31    18579.275   -36616.602    1346.9239   -2411.7596    1326.5496    72.355799    62.661961     36.09932   -68.339034   -311981.48 
   99530    240.37862    163679.12     72.35674     72.35674     36.09979          120    17877.097    18756.182   -36607.419    1540.6588   -2482.2721    1125.2467     72.35674    62.662775     36.09979    8.6199825   -311981.03 
   99540    242.62476    163685.47    72.357675    72.357675    36.100256          120    17142.119    17912.225   -36776.566    1231.9051   -2235.9565    1153.5092    72.357675    62.663585    36.100256   -574.07413    -311985.7 
   99550    239.47961    163691.47    72.358559    72.358559    36.100697          120    16800.867    17636.774   -36758.761    1234.9846   -2478.1539    1544.7082    72.358559    62.664351    36.100697   -773.70665   -311979.08 
   99560    239.96023       163697    72.359374    72.359375    36.101104          120    16775.484    18010.012   -36162.124    1328.0132   -2558.9799    1485.1438    72.359374    62.665057    36.101104   -458.87573   -311980.52 
   99570    241.36443     163702.2     72.36014     72.36014    36.101486          120    16898.889    18065.684   -36638.926    503.51966   -2982.7512      872.625     72.36014     62.66572    36.101486   -558.11757   -311983.64 
   99580    240.46487    163707.03    72.360852    72.360852    36.101841          120    17602.412    17603.403   -37618.263    580.40651   -2388.3844    1321.4137    72.360852    62.666336    36.101841   -804.14951    -311982.5 
   99590    240.27369    163711.34    72.361487    72.361488    36.102158          120    16932.595    17961.783   -37997.935    706.05295   -1476.0914    933.23327    72.361487    62.666887    36.102158   -1034.5191   -311981.93 
   99600    240.95929    163714.99    72.362025    72.362025    36.102426          120     16752.11    18017.189   -37734.305     1341.947   -1465.5704    1302.2045    72.362025    62.667352    36.102426   -988.33543   -311984.07 
   99610    238.98924       163718    72.362468    72.362469    36.102648          120    16977.257    18325.508   -37315.407    1689.9564   -1956.1149     1967.941    72.362468    62.667736    36.102648   -670.88104    -311980.7 
   99620    241.87387    163720.59     72.36285     72.36285    36.102838          120    17608.007    18774.922   -37072.901    1440.1216   -2294.2854    1474.0969     72.36285    62.668067    36.102838   -229.99072   -311986.73 
   99630    239.71135    163723.06    72.363213    72.363214    36.103019          120    17696.947    19183.281   -35844.553    1071.3624   -2367.8413    1402.2441    72.363213    62.668382    36.103019    345.22489   -311983.19 
   99640    240.14513    163725.71    72.363605    72.363605    36.103215          120    17926.909    19202.742   -36038.748    756.09355   -2190.1663    1791.8829    72.363605    62.668721    36.103215    363.63434   -311984.75 
   99650    240.30809    163728.62    72.364032    72.364033    36.103428          120    18227.361     18852.31   -36256.575    1128.1865   -2245.3729    1820.4187    72.364032    62.669091    36.103428    274.36531   -311985.69 
   99660    237.26532    163731.68    72.364484    72.364484    36.103653          120    18402.634     18663.97   -37123.519    1386.7672   -2425.8387    1164.2015    72.364484    62.669482    36.103653   -18.971647   -311980.76 
   99670    240.13048    163734.72    72.364931    72.364931    36.103876          120    17794.106    18424.689   -37722.396    1034.8372   -2887.6383    1215.6082    72.364931    62.669869    36.103876   -501.20063   -311987.62 
   99680    240.72518    163737.46    72.365335    72.365335    36.104078          120    17226.387    18424.421   -37246.103    858.79789   -2252.2565    1621.5557    72.365335    62.670219    36.104078   -531.76495   -311989.59 
   99690    237.20586    163739.85    72.365687    72.365688    36.104254          120    17776.448    18513.682   -37781.097    798.46194   -2102.3459    1732.6959    72.365687    62.670524    36.104254   -496.98908   -311982.94 
   99700    238.84897    163741.94    72.365995    72.365996    36.104407          120    17990.859     18228.09    -37228.33    886.13708   -1908.8181    1868.2535    72.365995    62.670791    36.104407    -336.4603   -311986.73 
   99710    237.45399    163743.79    72.366268    72.366268    36.104543          120     17248.92    17751.326   -36858.855    1729.8613   -2000.2241    1879.0549    72.366268    62.671027    36.104543   -619.53619    -311984.6 
   99720    238.88385    163745.23     72.36648     72.36648    36.104649          120    16693.571    17234.034   -37016.867    1838.1725   -2041.4819    1660.4834     72.36648     62.67121    36.104649    -1029.754   -311987.64 
   99730    238.13684    163746.01    72.366595    72.366595    36.104706          120    16651.165     17350.11    -37238.72    1452.5043    -1886.003    1291.4768    72.366595     62.67131    36.104706   -1079.1486   -311986.43 
   99740    238.31774    163746.09    72.366606    72.366607    36.104712          120    16459.706    17615.632   -37023.244    1180.4764   -1747.4088    1164.2439    72.366606     62.67132    36.104712   -982.63553   -311986.71 
   99750    237.96691     163745.5     72.36652    72.366521    36.104669          120     15954.13    17253.069   -36671.384    685.02646   -1322.7284    1312.8919     72.36652    62.671246    36.104669   -1154.7283   -311986.71 
   99760    239.78985    163744.19    72.366326    72.366327    36.104572          120    16460.609    17143.009   -37135.746    644.22748   -1984.1285    987.42416    72.366326    62.671078    36.104572   -1177.3759   -311990.43 
   99770    240.21784    163742.11    72.366021    72.366021     36.10442          120    17597.792    16704.035   -37547.564    813.09838   -3057.9129    1161.3253    72.366021    62.670813     36.10442   -1081.9126   -311991.07 
   99780    236.98684    163739.25    72.365599      72.3656     36.10421          120    17248.137    16321.197   -39253.109    1482.0216   -2984.6617    1173.9896    72.365599    62.670448     36.10421   -1894.5916   -311984.78 
   99790    239.16249    163735.21    72.365004    72.365005    36.103913          120    16678.419    16342.564   -38658.121    1538.9907   -2564.3598    2017.8585    72.365004    62.669932    36.103913   -1879.0461   -311988.92 
   99800      237.024    163729.93    72.364226    72.364227    36.103525          120    15799.018    16930.926   -38136.484    1583.0659   -2571.6391    2320.0509    72.364226    62.669259    36.103525   -1802.1803   -311984.68 
   99810    237.14928    163723.48    72.363275    72.363275     36.10305          120    15297.848    17961.569   -38506.246    1294.5028    -2382.938    1622.7007    72.363275    62.668435     36.10305   -1748.9429   -311985.24 
   99820    237.41062    163715.91     72.36216    72.362161    36.102494          120    15879.843    17908.672   -37851.721    1445.3644   -2582.1292    1412.6881     72.36216    62.667469    36.102494   -1354.4019      -311985 
   99830    238.30611    163707.44    72.360912    72.360913    36.101871          120    17105.246    17361.435   -37496.618    1613.9245    -2467.421    1348.0692    72.360912    62.666389    36.101871   -1009.9794   -311986.17 
   99840    240.98926    163698.31    72.359567    72.359568      36.1012          120    17451.636    17584.369   -37029.026    1434.7152   -2340.7834    1391.9496    72.359567    62.665224      36.1012   -664.34041   -311990.54 
   99850    239.08372    163688.74    72.358157    72.358157    36.100497          120    17533.312     18112.61   -36981.781    1431.6537   -2659.4931    860.16628    72.358157    62.664003    36.100497   -445.28647   -311986.51 
   99860    237.98622    163678.86    72.356701    72.356702     36.09977          120    17323.057    18608.195   -36698.166    997.99024   -2073.9446    1210.4927    72.356701    62.662742     36.09977   -255.63801   -311983.56 
   99870    242.18643    163668.74     72.35521    72.355211    36.099027          120    15694.591     18781.96   -37300.979    610.46469   -2326.7424    482.60191     72.35521    62.661451    36.099027   -941.47601   -311991.63 
   99880    238.66876    163658.06    72.353637    72.353637    36.098241          120    15674.804     18698.24   -37920.857    1028.4362   -2359.0509    1052.7502    72.353637    62.660088    36.098241   -1182.6047   -311984.17 
   99890    238.59156    163646.64    72.351953    72.351954    36.097402          120    17128.905    18072.407   -37300.248    787.39608   -2490.6604    1796.3099    72.351953     62.65863    36.097402   -699.64534    -311983.3 
   99900    239.71484     163634.8    72.350208    72.350209    36.096531          120    18531.239    18573.693   -35913.047     563.2883   -2052.0851    1699.9907    72.350208    62.657119    36.096531    397.29515   -311984.74 
   99910    241.39734    163623.17    72.348494    72.348495    36.095676          120    18849.205    18853.161   -35723.911    560.28207   -1632.4224     1617.952    72.348494    62.655634    36.095676    659.48505   -311987.75 
   99920    239.41827    163611.98    72.346844    72.346845    36.094852          120    18587.412    19350.181   -35369.024    583.53854   -2177.1879    1624.5387    72.346844    62.654206    36.094852    856.18988   -311982.95 
   99930    241.27354    163601.31    72.345272    72.345273    36.094068          120    17752.867    19743.306   -35497.187    1014.6664   -2876.6544    2201.9687    72.345272    62.652844    36.094068    666.32874   -311986.04 
   99940    238.78665    163591.09    72.343765    72.343765    36.093316          120     17719.93    19841.053   -36077.452     1071.152   -2825.1769     2078.101    72.343765    62.651539    36.093316    494.51018   -311981.18 
   99950    240.17105    163581.19    72.342306    72.342306    36.092588          120    18485.194    19436.883   -36835.677    1094.7791   -2676.7811     2134.111    72.342306    62.650275    36.092588    362.13332   -311983.72 
   99960     241.9099    163571.55    72.340884    72.340885    36.091879          120    18762.256    19442.046   -36346.046    1227.2061    -2239.155     1517.013    72.340884    62.649044    36.091879    619.41848    -311986.7 
   99970    239.50712    163562.35    72.339529     72.33953    36.091203          120    19876.616    19950.064   -35088.259    1395.1307   -2085.6861    1099.9647    72.339529    62.647871    36.091203    1579.4732   -311981.52 
   99980    242.31739    163554.12    72.338315    72.338316    36.090597          120    19845.897    20327.313   -35191.741    1371.2423   -2168.2082    1261.4948    72.338315    62.646819    36.090597    1660.4896    -311987.2 
   99990    239.41008    163546.97    72.337261    72.337261    36.090071          120    19674.514    20398.722   -34741.143    1441.2935   -2502.1578    2228.0703    72.337261    62.645906    36.090071    1777.3642   -311981.82 
  100000    239.10552    163540.94    72.336372    72.336373    36.089628          120    19513.271    20292.005   -35192.053     1222.335   -2008.0672     2273.113    72.336372    62.645137    36.089628     1537.741    -311981.3 
Loop time of 30250 on 1 procs for 100000 steps with 14848 atoms

Performance: 0.286 ns/day, 84.028 hours/ns, 3.306 timesteps/s
99.0% CPU use with 1 MPI tasks x no OpenMP threads

MPI task timing breakdown:
Section |  min time  |  avg time  |  max time  |%varavg| %total
---------------------------------------------------------------
Pair    | 25135      | 25135      | 25135      |   0.0 | 83.09
Bond    | 0.022216   | 0.022216   | 0.022216   |   0.0 |  0.00
Kspace  | 1135.7     | 1135.7     | 1135.7     |   0.0 |  3.75
Neigh   | 3289.2     | 3289.2     | 3289.2     |   0.0 | 10.87
Comm    | 41.223     | 41.223     | 41.223     |   0.0 |  0.14
Output  | 1.1292     | 1.1292     | 1.1292     |   0.0 |  0.00
Modify  | 636.93     | 636.93     | 636.93     |   0.0 |  2.11
Other   |            | 11.17      |            |       |  0.04

Nlocal:    14848 ave 14848 max 14848 min
Histogram: 1 0 0 0 0 0 0 0 0 0
Nghost:    46772 ave 46772 max 46772 min
Histogram: 1 0 0 0 0 0 0 0 0 0
Neighs:    1.00626e+07 ave 1.00626e+07 max 1.00626e+07 min
Histogram: 1 0 0 0 0 0 0 0 0 0

Total # of neighbors = 10062554
Ave neighs/atom = 677.704
Ave special neighs/atom = 0
Neighbor list builds = 11643
Dangerous builds = 0
 
All done!
Total wall time: 8:29:14
