LAMMPS (16 Mar 2018)
Reading data file ...
  triclinic box = (0 0 0) to (9.208 7.97436 18.376) with tilt (-4.604 0 0)
  1 by 1 by 1 MPI processor grid
  reading atoms ...
  116 atoms
Finding 1-2 1-3 1-4 neighbors ...
  special bond factors lj:   0          0          0         
  special bond factors coul: 0          0          0         
  0 = max # of 1-2 neighbors
  0 = max # of 1-3 neighbors
  0 = max # of 1-4 neighbors
  1 = max # of special neighbors
Replicating atoms ...
  triclinic box = (0 0 0) to (73.664 63.7949 36.752) with tilt (-36.832 0 0)
  1 by 1 by 1 MPI processor grid
  14848 atoms
Finding 1-2 1-3 1-4 neighbors ...
  special bond factors lj:   0          0          0         
  special bond factors coul: 0          0          0         
  0 = max # of 1-2 neighbors
  0 = max # of 1-3 neighbors
  0 = max # of 1-4 neighbors
  1 = max # of special neighbors
  Time spent = 0.00262403 secs
PPPM initialization ...
WARNING: System is not charge neutral, net charge = -0.2048 (../kspace.cpp:302)
  using 12-bit tables for long-range coulomb (../kspace.cpp:321)
  G vector (1/distance) = 0.201681
  grid = 36 50 24
  stencil order = 5
  estimated absolute RMS force accuracy = 0.00105653
  estimated relative force accuracy = 7.33721e-05
  using double precision FFTs
  3d grid and FFT values/proc = 65395 43200
Neighbor list info ...
  update every 1 steps, delay 0 steps, check yes
  max neighbors/atom: 2000, page size: 100000
  master list distance cutoff = 15.3
  ghost atom cutoff = 15.3
  binsize = 7.65, bins = 15 9 5
  3 neighbor lists, perpetual/occasional/extra = 3 0 0
  (1) pair morse, perpetual
      attributes: half, newton on
      pair build: half/bin/newton/tri
      stencil: half/bin/3d/newton/tri
      bin: standard
  (2) pair buck, perpetual, copy from (1)
      attributes: half, newton on
      pair build: copy
      stencil: none
      bin: none
  (3) pair lj/cut/coul/long, perpetual, copy from (1)
      attributes: half, newton on
      pair build: copy
      stencil: none
      bin: none
Setting up Verlet run ...
  Unit style    : metal
  Current step  : 0
  Time step     : 0.001
Per MPI rank memory allocation (min/avg/max) = 145.7 | 145.7 | 145.7 Mbytes
Step Temp Volume Cella Cellb Cellc CellGamma Pxx Pyy Pzz Pxy Pxz Pyz Lx Ly Lz Press PotEng 
       0          220    172711.88       73.664    73.664001       36.752          120   -208894.14   -208927.58   -279910.76    18.622124   -5.5971217    7.4811616       73.664    63.794896       36.752   -232577.49   -309191.56 
      10    322.00225    172619.92    73.650924    73.650924    36.745476          120   -211384.49   -211469.47   -258668.12    103.17021    -17.82937   -154.86359    73.650924    63.783572    36.745476   -227174.03   -309424.88 
      20    583.07968    172349.73    73.612476    73.612477    36.726294          120   -209468.33   -209089.84   -199585.13    27.906777   -239.62182   -338.33424    73.612476    63.750275    36.726294   -206047.77   -309979.36 
      30    577.59678    171925.02    73.551961    73.551962    36.696102          120   -184501.78   -184032.08   -119757.89   -210.08053   -784.49513   -412.87754    73.551961    63.697868    36.696102   -162763.91   -310042.45 
      40    358.13924    171397.43    73.476647    73.476648    36.658527          120   -141545.87   -141610.67   -40312.783   -538.45463    -1136.323   -457.08284    73.476647    63.632644    36.658527   -107823.11   -309679.92 
      50    440.47589    170836.99    73.396475    73.396475    36.618528          120    -99217.51   -99656.081    -5511.752   -646.04772   -1201.3038   -607.10808    73.396475    63.563212    36.618528   -68128.448   -309874.13 
      60    748.39561    170301.35    73.319685    73.319686    36.580216          120   -71336.202   -71240.193   -40953.458   -600.75828   -2097.5874   -449.51125    73.319685     63.49671    36.580216   -61176.617   -310505.09 
      70    933.24076    169813.65    73.249629    73.249629    36.545264          120   -52461.804   -52129.335   -103530.07   -1506.6604   -2427.4307   -407.79868    73.249629     63.43604    36.545264   -69373.738   -310931.51 
      80    790.22804    169372.33    73.186118    73.186119    36.513578          120   -40801.745   -41378.638   -149219.62   -1734.2705   -2965.8548    121.09189    73.186118    63.381038    36.513578   -77133.335   -310734.36 
      90    516.81555    168967.07    73.127701    73.127702    36.484433          120   -34662.174   -35324.341   -164309.09   -1954.9914   -3470.9988   -130.20215    73.127701    63.330448    36.484433   -78098.537   -310268.81 
     100    535.82225    168589.05    73.073125    73.073126    36.457204          120   -19882.556   -19946.317   -144476.52    -1708.008   -3232.9543   -636.17245    73.073125    63.283183    36.457204   -61435.132   -310350.76 
     110    709.57122    168239.01    73.022517    73.022518    36.431955          120   -655.87847   -790.86389   -101664.61   -1818.2772   -2466.8277   -741.41205    73.022517    63.239356    36.431955    -34370.45    -310737.3 
     120    708.94364    167923.75    72.976876    72.976877    36.409184          120    10082.529    10150.299   -50549.115   -1782.0643   -2028.3875   -1303.2393    72.976876    63.199829    36.409184   -10105.429   -310795.81 
     130    603.17869    167648.11    72.936924    72.936925    36.389252          120    8450.1362    9471.7325   -10349.039   -1780.1419   -1986.4519   -1284.1141    72.936924     63.16523    36.389252    2524.2766   -310643.77 
     140    556.86961    167410.49    72.902448    72.902449    36.372051          120    3569.8207    3545.5869    2057.2827   -1275.6551   -1858.8054    -1113.052    72.902448    63.135373    36.372051    3057.5634   -310595.91 
     150    611.69138    167202.83    72.872293    72.872293    36.357006          120   -4098.5592   -3035.7366   -21328.881   -1842.3808   -1395.3015   -545.41785    72.872293    63.109257    36.357006   -9487.7258   -310743.98 
     160    672.03637    167010.88    72.844396    72.844396    36.343088          120   -14734.848   -12959.838   -58266.273   -1594.1687   -1484.8288   -455.63265    72.844396    63.085098    36.343088   -28653.653   -310913.79 
     170    649.84817    166818.82    72.816463    72.816463    36.329152          120   -19662.058   -17392.844   -88606.146   -589.42185   -2157.5585   -780.59378    72.816463    63.060907    36.329152   -41887.016   -310929.98 
     180    570.11299    166616.84    72.787063    72.787063    36.314484          120   -16099.829   -13801.448   -105307.96   -293.78622   -2313.5316   -856.22899    72.787063    63.035446    36.314484   -45069.747   -310831.66 
     190     547.4924    166403.32    72.755956    72.755957    36.298964          120   -10919.442   -8832.7827   -102610.29    278.67357   -1943.1657   -630.35997    72.755956    63.008507    36.298964   -40787.505   -310836.34 
     200    586.07278    166182.54    72.723765    72.723766    36.282904          120   -6502.6498   -4949.1393   -82704.384   -402.22084   -2123.0902   -463.20502    72.723765    62.980629    36.282904   -31385.391   -310959.22 
     210    590.71781    165962.16    72.691604    72.691605    36.266858          120     -1929.94   -79.762679   -58424.438   -944.29845   -2134.6345   -465.21611    72.691604    62.952777    36.266858   -20144.714   -311019.58 
     220    559.62363    165750.42    72.660678    72.660678    36.251428          120    2094.4351    3717.9458   -38656.268   -749.76694    -1773.483   -1522.7431    72.660678    62.925993    36.251428   -10947.962   -311007.33 
     230    538.64893    165553.03    72.631822    72.631823    36.237032          120    3086.0693    3518.5863   -31654.392   -564.58838   -1302.2795   -1860.1853    72.631822    62.901004    36.237032   -8349.9122   -311011.35 
     240    540.46475    165370.67    72.605144    72.605145    36.223722          120    1240.5833    1513.5229   -36991.201   -231.25236   -1945.0638   -2137.7559    72.605144      62.8779    36.223722   -11412.365   -311057.84 
     250    555.13828     165199.9    72.580144    72.580144    36.211249          120   -1138.3124   -1194.4496   -51559.183   -57.425334   -1852.3065   -2274.5114    72.580144    62.856249    36.211249   -17963.982   -311131.86 
     260    548.04895    165035.36    72.556039    72.556039    36.199223          120   -1476.8377   -2586.9663   -66190.358   -210.59531   -1757.3242    -2369.165    72.556039    62.835373    36.199223   -23418.054   -311165.21 
     270    520.73721    164872.84    72.532214    72.532215    36.187336          120   -651.97002   -2061.1059   -74270.078   -742.41957   -1544.1984   -1576.5722    72.532214    62.814741    36.187336   -25661.051   -311158.69 
     280    502.08099    164710.71    72.508431    72.508431     36.17547          120     413.3814   -298.67748   -73074.392   -717.17241   -1134.3123   -392.28408    72.508431    62.794144     36.17547   -24319.896   -311165.29 
     290    503.72237    164549.98    72.484839    72.484839      36.1637          120    3470.9862    3622.8527   -63499.001   -621.16203   -1312.0592   -271.88627    72.484839    62.773712      36.1637   -18801.721    -311210.8 
     300     504.0112    164394.18    72.461954    72.461954    36.152282          120    7375.8143     7537.147   -49787.807   -246.16914   -1526.3222   -390.20509    72.461954    62.753894    36.152282   -11624.949   -311252.39 
     310    494.37359    164247.52    72.440399      72.4404    36.141529          120    9945.6029    9659.4174   -35742.254    79.468534   -1439.9557   -779.31414    72.440399    62.735227    36.141529   -5379.0779   -311273.79 
     320    480.20563    164112.98    72.420615    72.420616    36.131658          120    9775.3847    9813.7401   -28170.742    96.656718   -1970.0353   -1361.2734    72.420615    62.718093    36.131658   -2860.5392   -311284.83 
     330    478.53807    163990.78    72.402635    72.402636    36.122687          120    7999.1912    8583.2061   -29309.761   -46.743352   -1994.9203   -1331.5132    72.402635    62.702522    36.122687   -4242.4544   -311318.88 
     340    476.17702    163878.58    72.386118    72.386119    36.114447          120    6843.1522    8039.9949   -38504.524    -131.4129   -1482.1306   -1240.5779    72.386118    62.688218    36.114447   -7873.7925    -311351.1 
     350    467.92837    163772.73    72.370531    72.370532     36.10667          120    6523.0175    7282.4927   -49806.286   -239.58329   -753.67327   -1116.6411    72.370531    62.674719     36.10667   -12000.258   -311372.87 
     360    452.81864    163669.82    72.355369    72.355369    36.099105          120    6838.7051    8352.2885   -56276.968   -661.81928   -465.88014    -1826.683    72.355369    62.661588    36.099105   -13695.325   -311379.18 
     370    440.64751    163568.22    72.340395    72.340395    36.091635          120    7756.4643    10402.396   -56742.716   -799.16293   -1666.2081   -1840.0824    72.340395     62.64862    36.091635   -12861.285   -311390.16 
     380    436.41566    163468.22    72.325649     72.32565    36.084278          120    10296.995    12532.478   -51737.737   -1084.1041    -1906.638   -1613.2981    72.325649     62.63585    36.084278    -9636.088   -311414.81 
     390    433.82721    163371.64    72.311403    72.311403     36.07717          120    13351.532    14584.343   -42570.043   -1427.0176   -2157.3973   -1444.4858    72.311403    62.623512     36.07717   -4878.0558   -311442.78 
     400    423.59473    163281.12    72.298044    72.298045    36.070506          120    15003.382     16253.16   -33192.148   -194.50562   -2555.7924   -1024.0925    72.298044    62.611943    36.070506   -645.20192   -311454.84 
     410    412.18442    163198.75    72.285885    72.285885    36.064439          120    15924.304    17524.581   -27826.662   -46.846105   -1969.7709   -1570.0879    72.285885    62.601413    36.064439    1874.0743   -311462.87 
     420    411.09891    163125.21    72.275025    72.275026    36.059021          120    15740.226    17281.029   -28831.538   -458.94696   -1847.9251   -1113.2884    72.275025    62.592009    36.059021    1396.5726   -311490.17 
     430    405.04956    163059.26    72.265285    72.265286    36.054162          120    14892.284    15712.868   -33538.636   -144.85177   -1667.6173   -153.88704    72.265285    62.583573    36.054162   -977.82806   -311508.08 
     440    399.18938    162998.59    72.256321    72.256321    36.049689          120    14723.992    14294.686   -39808.743     124.2503   -1906.2522   -531.09126    72.256321     62.57581    36.049689   -3596.6884   -311525.69 
     450      390.069    162940.92    72.247798    72.247799    36.045437          120    15128.633    13926.842   -43607.264     253.5074    -1453.257    -499.5499    72.247798    62.568429    36.045437   -4850.5963   -311536.29 
     460    384.38683    162885.16    72.239556    72.239557    36.041325          120    17058.345    15924.525   -43533.399    1207.3701   -756.08055    -700.6051    72.239556    62.561292    36.041325   -3516.8426   -311551.69 
     470    378.83445    162831.83    72.231672    72.231672    36.037391          120    19267.293    17383.415   -40536.179    1436.9819   -1451.5211    30.029668    72.231672    62.554463    36.037391   -1295.1569   -311567.37 
     480    375.50586    162782.16    72.224326    72.224327    36.033727          120    19920.533    19053.841   -34503.257    1464.9784   -1458.4706    786.43384    72.224326    62.548102    36.033727     1490.372   -311587.13 
     490    368.05389    162737.58    72.217732    72.217732    36.030437          120    20397.788    20121.522   -29741.118     1370.865   -1403.4991    1055.0934    72.217732    62.542391    36.030437    3592.7306   -311597.42 
     500    360.43979       162699    72.212025    72.212025    36.027589          120    20789.502    21179.573    -28148.02    1251.3578   -1168.5963    1491.5972    72.212025    62.537449    36.027589    4607.0181   -311606.89 
     510    359.18097     162666.5    72.207216    72.207217     36.02519          120    19716.326     21491.89   -29595.236    1243.9728   -1571.0743    1459.3056    72.207216    62.533284     36.02519    3870.9937   -311628.03 
     520    352.99968    162639.12    72.203165    72.203165    36.023169          120    18961.986    20259.977   -32072.748    952.89949   -1678.5904    1005.9481    72.203165    62.529776    36.023169    2383.0714   -311639.02 
     530       346.87    162615.44    72.199661    72.199661    36.021421          120     18433.13    19464.062   -35106.193    295.78232   -1591.5689     509.6509    72.199661    62.526741    36.021421     930.3331   -311649.51 
     540    340.39238    162594.21    72.196519    72.196519    36.019853          120    17958.411    20038.139   -37438.008    480.96359   -2291.4757      295.355    72.196519     62.52402    36.019853    186.18088   -311658.53 
     550     335.5025    162574.74    72.193637    72.193637    36.018415          120     18186.55    20593.625   -37922.451    247.50293   -2452.7342     112.4208    72.193637    62.521524    36.018415      285.908   -311670.23 
     560    330.59975    162556.93       72.191       72.191      36.0171          120    18659.937    20583.163   -36633.045   -344.62319   -2722.0064    703.06933       72.191     62.51924      36.0171    870.01842   -311682.01 
     570     325.6959    162541.05    72.188649     72.18865    36.015927          120     19594.56    20733.347   -33354.865    423.37307   -2731.4314    707.84703    72.188649    62.517205    36.015927    2324.3472   -311692.35 
     580    318.16021    162527.86    72.186696    72.186697    36.014952          120    20507.913    20652.393   -30457.314    693.03054   -2273.1816    268.09997    72.186696    62.515513    36.014952    3567.6638   -311697.55 
     590    315.82995       162518    72.185236    72.185237    36.014224          120     20719.41    20975.072   -28455.496    683.62734   -2567.9142    468.99719    72.185236    62.514249    36.014224    4412.9952   -311711.54 
     600     313.7137    162511.75    72.184311    72.184311    36.013762          120    20803.861    20673.043   -28939.936    975.27773   -2211.1582    697.15997    72.184311    62.513447    36.013762    4178.9892   -311725.63 
     610     313.4538     162508.7     72.18386     72.18386    36.013537          120    21159.255    19426.035   -31134.118    512.81864   -1625.1167    252.03756     72.18386    62.513057    36.013537    3150.3905   -311743.46 
     620    304.82739    162508.01    72.183758    72.183759    36.013487          120     20921.64    19510.122   -33623.244    148.24943    -1709.242   -434.56134    72.183758    62.512969    36.013487     2269.506   -311744.39 
     630    300.88898    162508.93    72.183894    72.183894    36.013554          120    20421.761     20008.56   -35523.785    234.29402   -2110.4041    -828.1496    72.183894    62.513086    36.013554    1635.5121   -311753.92 
     640    297.61263    162510.95    72.184193    72.184194    36.013704          120    21052.677    20083.339   -35161.396    730.16537    -2363.709   -888.52772    72.184193    62.513346    36.013704    1991.5401   -311764.08 
     650    292.49439    162514.22    72.184677    72.184678    36.013945          120    21406.876    20964.328   -33695.615    965.08995   -2591.0468   -907.91667    72.184677    62.513765    36.013945    2891.8631   -311770.07 
     660    292.58283     162519.3     72.18543     72.18543    36.014321          120    22366.471    22535.875   -31507.566    686.34668   -3035.0995    -1007.225     72.18543    62.514416    36.014321    4464.9263   -311785.74 
     670    289.99165    162527.06    72.186579    72.186579    36.014894          120    23236.576    22040.805   -29286.934    860.49912   -2723.6639   -721.82833    72.186579    62.515411    36.014894     5330.149   -311796.27 
     680    282.84032    162537.92    72.188185    72.188186    36.015695          120    22653.862    21445.891   -28893.297    805.30739   -2191.5289    243.42494    72.188185    62.516803    36.015695    5068.8187    -311797.5 
     690    276.66858    162551.54    72.190202    72.190202    36.016701          120    22518.573    21329.794    -30489.14    496.10797    -1977.468    427.59163    72.190202    62.518549    36.016701    4453.0758   -311800.65 
     700    275.94014    162567.35    72.192542    72.192543    36.017869          120    22235.793     20387.25   -32267.394    630.83713   -1844.9553    340.93043    72.192542    62.520576    36.017869    3451.8829   -311812.88 
     710    276.05286    162584.57    72.195091    72.195092    36.019141          120    21284.434    20107.073   -33841.346    593.67741   -1558.6239   -186.75783    72.195091    62.522784    36.019141    2516.7205   -311826.36 
     720    270.21858     162602.5    72.197745    72.197746    36.020465          120    21110.494    20365.438   -35455.169    233.39015   -1047.4168   -484.69685    72.197745    62.525082    36.020465    2006.9208    -311828.7 
     730    266.37845     162620.8    72.200453    72.200453    36.021816          120     21631.29    20322.048   -35148.068    311.36374   -1058.9707    -893.3902    72.200453    62.527427    36.021816    2268.4236   -311834.17 
     740    265.70039     162639.6    72.203236    72.203237    36.023204          120    22234.256    20302.346   -33290.948    457.42903   -1176.5436   -1402.9384    72.203236    62.529837    36.023204    3081.8846   -311844.69 
     750     261.2875    162659.41    72.206168    72.206168    36.024667          120    22870.662    20111.742   -32164.412    400.66106    -1394.779   -1372.4052    72.206168    62.532376    36.024667    3605.9976   -311848.24 
     760    257.08712     162680.5    72.209288    72.209288    36.026224          120    22550.026    19354.324    -31949.11      435.555   -1747.8444   -1207.7848    72.209288    62.535078    36.026224    3318.4132   -311851.86 
     770    256.52379    162702.66    72.212566    72.212566    36.027859          120    21793.691    18933.038   -32076.743    301.22434   -1682.2936   -911.99773    72.212566    62.537917    36.027859    2883.3287   -311862.26 
     780    253.75301    162725.51    72.215947    72.215948    36.029546          120    20938.803    18577.525   -32752.369    389.03982   -1911.4159   -538.38757    72.215947    62.540846    36.029546    2254.6534   -311867.77 
     790    251.95199    162748.65    72.219369     72.21937    36.031253          120    20469.996    18493.165   -33787.705    813.13418   -2013.1193   -522.09606    72.219369    62.543809    36.031253    1725.1519   -311875.09 
     800    249.56115    162771.67    72.222774    72.222774    36.032952          120    19377.062    18525.756   -34882.552    800.25797   -2058.5413   -359.64174    72.222774    62.546758    36.032952    1006.7554   -311881.05 
     810    246.97539     162794.1    72.226092    72.226092    36.034607          120    18961.088    17957.224   -36099.921    801.90505   -1691.6557   -547.20901    72.226092    62.549631    36.034607     272.7973   -311886.13 
     820    245.09534    162815.56    72.229265    72.229266    36.036191          120    19574.485    17489.328   -35932.613    890.14938   -1092.1511   -773.92138    72.229265    62.552379    36.036191    377.06692   -311891.83 
     830     242.8124    162836.13    72.232307    72.232307    36.037708          120    19627.905     17519.72   -35075.093    953.60604   -1141.1324   -1017.5461    72.232307    62.555013    36.037708    690.84438   -311896.66 
     840    238.62281    162856.09    72.235258    72.235259    36.039181          120    19547.677    18278.304   -33927.804    589.22946   -1191.9873   -1679.4092    72.235258     62.55757    36.039181    1299.3926   -311897.89 
     850    236.48523    162875.87    72.238183    72.238184     36.04064          120    19626.786    18844.553   -33307.362    314.33798   -1399.0026   -1974.9093    72.238183    62.560102     36.04064    1721.3255    -311902.1 
     860    234.46032    162895.75    72.241121    72.241121    36.042106          120    19722.506    18577.704   -33769.418    149.93378    -1108.399   -1239.6574    72.241121    62.562646    36.042106    1510.2643   -311906.47 
     870    232.34007    162915.58    72.244052    72.244053    36.043568          120    18847.422    18185.951   -34248.411    325.67238   -1560.5289   -358.30988    72.244052    62.565185    36.043568    928.32052   -311910.22 
     880    232.28562    162934.98     72.24692     72.24692    36.044999          120    18286.458    17494.288   -35408.829    673.28856   -2003.6011    64.104973     72.24692    62.567669    36.044999    123.97237   -311918.11 
     890    231.96685    162953.47    72.249653    72.249654    36.046363          120    17866.014    17259.173   -36098.503    527.76948    -2060.937    736.65573    72.249653    62.570036    36.046363   -324.43889   -311925.04 
     900    226.90264     162970.8    72.252213    72.252214     36.04764          120    17519.224    17380.994   -36273.044    982.77035   -1733.8424      79.6619    72.252213    62.572253     36.04764   -457.60877   -311921.94 
     910    225.66678    162986.92    72.254596    72.254597    36.048829          120    17218.633    17407.183   -35853.273    1101.0269     -1722.55   -620.69554    72.254596    62.574317    36.048829    -409.1524   -311926.61 
     920    224.94145    163001.94    72.256816    72.256817    36.049936          120    17079.783    17253.345   -35552.534    1323.5568   -1803.2325    -1394.247    72.256816    62.576239    36.049936   -406.46869   -311931.86 
     930    223.51626    163015.94    72.258884    72.258885    36.050968          120    17000.964    17091.182   -35129.089    1958.3029   -1749.6074   -742.65685    72.258884     62.57803    36.050968   -345.64736   -311935.19 
     940    221.58266    163029.01    72.260816    72.260816    36.051932          120      17292.3    16970.788   -34283.493    1906.3377   -1786.2078   -1052.2556    72.260816    62.579703    36.051932   -6.8016802   -311936.88 
     950    220.65296    163041.39    72.262644    72.262645    36.052844          120    17390.873     16634.06   -34147.007    1098.1796   -2234.1659   -919.03627    72.262644    62.581286    36.052844   -40.691566   -311941.05 
     960    220.58197    163053.14    72.264381    72.264382    36.053711          120    17373.359    17218.223   -34447.727    1355.9844   -2791.2207   -349.83564    72.264381     62.58279    36.053711     47.95175   -311946.52 
     970    218.89087     163064.3    72.266028    72.266029    36.054532          120    17893.709    16725.232   -35998.056    1147.0535   -2684.3111   -386.49687    72.266028    62.584217    36.054532   -459.70467   -311948.11 
     980    217.66078    163074.62    72.267554    72.267554    36.055293          120    17899.667    16936.029   -36313.592    893.95944   -2669.1032    233.54563    72.267554    62.585538    36.055293   -492.63216   -311950.49 
     990    216.20953    163084.06    72.268948    72.268948    36.055989          120    16526.409    16863.926   -36749.515    1137.3197   -2225.3855   -133.89787    72.268948    62.586745    36.055989   -1119.7266   -311952.32 
    1000    215.60543    163092.28    72.270162    72.270163    36.056595          120    16416.122     16023.21   -37079.249    1540.5742   -2213.2301     5.818043    72.270162    62.587797    36.056595    -1546.639   -311955.08 
Loop time of 302.798 on 1 procs for 1000 steps with 14848 atoms

Performance: 0.285 ns/day, 84.110 hours/ns, 3.303 timesteps/s
100.0% CPU use with 1 MPI tasks x no OpenMP threads

MPI task timing breakdown:
Section |  min time  |  avg time  |  max time  |%varavg| %total
---------------------------------------------------------------
Pair    | 241.13     | 241.13     | 241.13     |   0.0 | 79.63
Bond    | 0.0002284  | 0.0002284  | 0.0002284  |   0.0 |  0.00
Kspace  | 11.043     | 11.043     | 11.043     |   0.0 |  3.65
Neigh   | 43.834     | 43.834     | 43.834     |   0.0 | 14.48
Comm    | 0.44201    | 0.44201    | 0.44201    |   0.0 |  0.15
Output  | 0.010658   | 0.010658   | 0.010658   |   0.0 |  0.00
Modify  | 6.2272     | 6.2272     | 6.2272     |   0.0 |  2.06
Other   |            | 0.1098     |            |       |  0.04

Nlocal:    14848 ave 14848 max 14848 min
Histogram: 1 0 0 0 0 0 0 0 0 0
Nghost:    46877 ave 46877 max 46877 min
Histogram: 1 0 0 0 0 0 0 0 0 0
Neighs:    1.00911e+07 ave 1.00911e+07 max 1.00911e+07 min
Histogram: 1 0 0 0 0 0 0 0 0 0

Total # of neighbors = 10091100
Ave neighs/atom = 679.627
Ave special neighs/atom = 0
Neighbor list builds = 158
Dangerous builds = 0
PPPM initialization ...
  using 12-bit tables for long-range coulomb (../kspace.cpp:321)
  G vector (1/distance) = 0.202618
  grid = 36 50 24
  stencil order = 5
  estimated absolute RMS force accuracy = 0.000996816
  estimated relative force accuracy = 6.92251e-05
  using double precision FFTs
  3d grid and FFT values/proc = 65395 43200
Setting up Verlet run ...
  Unit style    : metal
  Current step  : 0
  Time step     : 0.001
Per MPI rank memory allocation (min/avg/max) = 152.6 | 152.6 | 152.6 Mbytes
Step Temp Volume Cella Cellb Cellc CellGamma Pxx Pyy Pzz Pxy Pxz Pyz Lx Ly Lz Press PotEng 
       0    215.60543    163092.28    72.270162    72.270163    36.056595          120    16428.317    16035.725   -37072.719    1540.9873   -2213.2511    5.6669709    72.270162    62.587797    36.056595   -1536.2256    -311954.9 
      10    213.74798    163099.07    72.271165    72.271166    36.057095          120    16558.419    16105.378   -37133.198     1472.535   -2321.3402   -312.41109    72.271165    62.588666    36.057095   -1489.8001   -311955.37 
      20    213.52919    163104.52     72.27197    72.271971    36.057497          120    16565.351    15937.888   -36548.567    1219.5219   -2225.6886   -314.02424     72.27197    62.589363    36.057497   -1348.4427   -311958.42 
      30    213.31866    163108.79      72.2726    72.272601    36.057811          120    16704.952    16201.916   -36086.803    997.38324   -2406.6025    189.20268      72.2726    62.589908    36.057811   -1059.9782   -311961.38 
      40    211.62894    163112.11    72.273092    72.273092    36.058056          120    17138.675    16108.452   -35445.438     553.2433   -2281.7801     450.7582    72.273092    62.590334    36.058056   -732.77032   -311960.82 
      50    211.59822    163114.75    72.273482    72.273482    36.058251          120     17034.58    16537.341   -35626.739    764.05234   -2639.0281    592.74057    72.273482    62.590672    36.058251   -684.93933   -311963.03 
      60    214.42103    163116.76    72.273778    72.273778    36.058399          120    16540.135    16364.169   -36157.764    462.95259   -3262.5932     262.5938    72.273778    62.590928    36.058399   -1084.4865   -311970.74 
      70    212.62152    163117.93     72.27395    72.273951    36.058485          120    16327.529    16379.639   -37086.397    653.77482   -3381.3069    155.90226     72.27395    62.591078    36.058485    -1459.743    -311969.8 
      80    211.66342    163118.06    72.273969     72.27397    36.058494          120    17033.196    15950.434    -37572.05    624.39352   -3406.1408   -144.14239    72.273969    62.591094    36.058494   -1529.4733   -311969.77 
      90    212.03342    163117.14    72.273835    72.273835    36.058427          120    17632.852    15251.155   -36785.756    597.23213   -2899.7996   -625.22997    72.273835    62.590977    36.058427   -1300.5831   -311971.39 
     100    210.60198    163115.37    72.273573    72.273573    36.058296          120    17626.532    15487.944   -36363.202    922.29053   -2760.0159    -495.3023    72.273573    62.590751    36.058296   -1082.9086   -311969.75 
     110    209.93316    163112.94    72.273214    72.273214    36.058117          120    18051.946    16124.994   -36417.354    1300.8442   -2664.3142    178.34525    72.273214     62.59044    36.058117   -746.80469   -311969.04 
     120    209.88883    163110.05    72.272787    72.272787    36.057904          120    17593.621    16014.622   -36852.815    1396.8608   -2716.0659     102.2872    72.272787     62.59007    36.057904   -1081.5241   -311969.41 
     130    211.23034    163106.59    72.272275    72.272276    36.057649          120    17801.172    15862.298   -36302.548    886.61792   -3011.9823    140.64254    72.272275    62.589627    36.057649   -879.69277   -311972.27 
     140     211.6706    163102.68    72.271698    72.271699    36.057361          120    18496.455    16491.797   -36250.288    1133.9246   -2775.3369    543.72883    72.271698    62.589127    36.057361   -420.67902   -311972.79 
     150    212.75348    163098.67    72.271105    72.271106    36.057065          120    19224.282     16415.85   -35510.347    1011.0167   -2855.6057    451.96686    72.271105    62.588614    36.057065    43.261971   -311974.03 
     160    213.73296    163094.86    72.270543    72.270544    36.056785          120    20050.549    16833.038   -35411.504    771.09409    -2916.045     195.0784    72.270543    62.588127    36.056785    490.69434   -311974.84 
     170    211.87115    163091.56    72.270055    72.270056    36.056541          120    20372.916    17335.901   -35390.113    1093.1783     -3186.75    -20.83599    72.270055    62.587704    36.056541    772.90146   -311970.07 
     180    212.19806    163088.93    72.269668    72.269668    36.056348          120    20353.785    17695.646   -35244.312     690.5219   -3488.4438   -932.10635    72.269668    62.587369    36.056348     935.0399   -311969.21 
     190    212.73841    163087.04    72.269388    72.269389    36.056209          120    19668.831    17902.802   -35224.369    496.00716   -2984.7882   -751.70381    72.269388    62.587127    36.056209    782.42155   -311968.51 
     200    214.19958    163085.79    72.269203    72.269203    36.056116          120    19087.433    17930.224    -34962.41    600.99037   -2527.6346   -225.22676    72.269203    62.586966    36.056116    685.08215   -311969.41 
     210    213.78149    163085.06    72.269096    72.269097    36.056063          120    18658.894    18123.585   -34928.492    350.83576   -2459.7088   -375.26165    72.269096    62.586874    36.056063    617.99569   -311966.43 
     220    214.80802    163084.82     72.26906    72.269061    36.056045          120    19382.677    18243.827   -34912.496    290.25589   -2265.2986   -517.58979     72.26906    62.586843    36.056045    904.66898   -311965.92 
     230      215.389    163085.22     72.26912    72.269121    36.056075          120    20128.753    18406.754   -35075.545    761.67721   -2135.9814   -573.47799     72.26912    62.586894    36.056075    1153.3208   -311964.16 
     240    217.31969    163086.36    72.269288    72.269289    36.056159          120    19672.108    18308.102   -35530.655    1105.9232   -2672.9787   -368.55642    72.269288     62.58704    36.056159    816.51823   -311965.32 
     250    218.11652    163088.04    72.269535    72.269536    36.056282          120    19236.738    18576.267   -35667.659    1189.0099   -3152.6603    370.38776    72.269535    62.587254    36.056282     715.1153   -311964.12 
     260    219.36949    163090.14    72.269846    72.269847    36.056437          120    18965.455    18423.119   -35488.237    997.13594   -3154.6646   -214.78228    72.269846    62.587523    36.056437    633.44558   -311963.71 
     270    217.43988    163092.57    72.270206    72.270206    36.056616          120    18659.113    18248.986    -36432.02    682.85636   -2968.3428   -784.51174    72.270206    62.587835    36.056616    158.69289   -311956.96 
     280    219.65184    163095.01    72.270566    72.270567    36.056796          120    18257.479    17738.276   -37072.854    359.96743   -2844.1277   -734.53012    72.270566    62.588147    36.056796   -359.03291   -311958.45 
     290    219.79739    163097.17    72.270884    72.270885    36.056955          120    18549.426    17943.102   -36460.519    469.24983   -2979.3938    3.5075867    72.270884    62.588422    36.056955    10.669652   -311955.85 
     300    221.45555    163099.23    72.271189     72.27119    36.057107          120    18384.915    18228.631   -35679.242     825.1974   -2484.2213    410.02666    72.271189    62.588686    36.057107     311.4348    -311955.9 
     310    221.68834    163101.38    72.271507    72.271507    36.057266          120    18310.685    17295.375   -35604.037    863.79574   -2104.7061   -274.59001    72.271507    62.588962    36.057266   0.67435243   -311953.43 
     320    222.11428    163103.47    72.271816    72.271816     36.05742          120    18060.353    17575.669   -35334.816    1017.3796   -2155.1966    -632.2632    72.271816    62.589229     36.05742    100.40197   -311951.59 
     330    224.37556    163105.55    72.272122    72.272122    36.057572          120    18623.334    17790.842   -35785.751     903.6294   -2430.7631   -811.41237    72.272122    62.589494    36.057572    209.47504   -311953.25 
     340    223.95179    163107.62    72.272428    72.272429    36.057725          120     18207.48    17103.754   -36391.751    1263.8565   -2042.1852   -643.35056    72.272428    62.589759    36.057725   -360.17219   -311950.29 
     350    226.35085    163109.43    72.272695    72.272695    36.057858          120    18258.942    17141.503   -35723.328    1557.5599   -2336.7063   -300.11236    72.272695     62.58999    36.057858   -107.62763   -311952.62 
     360     226.2734    163111.04    72.272933    72.272934    36.057977          120    17875.295    17237.176   -36042.606     1602.242     -2785.34    -39.17926    72.272933    62.590197    36.057977   -310.04469   -311950.51 
     370    226.06491     163112.4    72.273134    72.273135    36.058077          120     17933.12    17683.597   -35891.247    1324.2738   -2443.2077     13.61619    72.273134    62.590371    36.058077   -91.509934   -311947.98 
     380    227.67426    163113.64    72.273316    72.273317    36.058168          120    18104.919     17942.63   -35728.142    935.70941   -2037.6619   -211.39789    72.273316    62.590529    36.058168    106.46928   -311949.95 
     390    227.84989    163114.92    72.273506    72.273506    36.058263          120    18363.808    17984.239   -35354.064    789.17465   -2035.0984   -319.59024    72.273506    62.590693    36.058263    331.32768    -311948.6 
     400    226.47806    163116.39    72.273723    72.273723    36.058371          120    18622.573    17552.724   -34783.788    765.26417   -1852.7033     533.9691    72.273723     62.59088    36.058371    463.83643   -311944.92 
     410    226.96586    163118.13     72.27398    72.273981      36.0585          120    18790.141    17826.784   -34276.682     819.9242   -1512.6262    577.48612     72.27398    62.591104      36.0585    780.08115   -311945.32 
     420     228.3863    163120.32    72.274303    72.274304    36.058661          120    17959.022    18429.524   -34090.103    1371.8716   -1475.6731    357.68825    72.274303    62.591383    36.058661    766.14746   -311948.05 
     430    225.89579    163122.94     72.27469     72.27469    36.058854          120    17144.531    18128.703   -33585.758    1377.9591   -1768.7004    156.08057     72.27469    62.591718    36.058854    562.49193   -311943.41 
     440    228.83223    163125.83    72.275117    72.275118    36.059067          120    17374.287    17566.735   -33949.373    1014.9863   -2200.7475   -113.42035    72.275117    62.592088    36.059067    330.54993    -311949.6 
     450    227.16059    163128.85    72.275563    72.275564    36.059289          120    17644.019    17507.146   -34482.747    1079.0207   -1837.7261    -64.56232    72.275563    62.592474    36.059289    222.80604   -311946.61 
     460     228.1201     163131.9    72.276015    72.276015    36.059515          120    17826.389    17336.242   -34833.092    1237.8005   -2011.3492   -228.81804    72.276015    62.592865    36.059515    109.84618   -311949.16 
     470    225.76005    163134.92    72.276459     72.27646    36.059737          120    17979.177    17500.762   -35537.797     1256.252   -2269.9384    -75.70736    72.276459    62.593251    36.059737   -19.286042   -311946.47 
     480    227.23165    163137.83     72.27689    72.276891    36.059951          120    18103.436    17845.758   -35494.342    1329.2233   -2275.9277    31.112638     72.27689    62.593624    36.059951    151.61735   -311950.87 
     490    227.57159    163140.73    72.277318    72.277318    36.060165          120    17840.681    18137.797   -35584.326    927.61284   -2099.1484   -150.74238    72.277318    62.593994    36.060165    131.38412   -311952.88 
     500    225.70714    163143.65    72.277749     72.27775     36.06038          120    18475.669    18592.084   -35219.254    810.14426   -1648.1838   -318.30744    72.277749    62.594367     36.06038    616.16631    -311950.6 
     510     225.8537    163146.86    72.278223    72.278223    36.060616          120     18384.39    18588.937   -34760.112    618.58203   -1675.5856   -291.25735    72.278223    62.594778    36.060616    737.73841   -311952.96 
     520    224.70945    163150.45    72.278753    72.278754    36.060881          120    18481.026    18029.059   -34645.555    471.82547   -1789.9388   -481.09906    72.278753    62.595237    36.060881    621.50988   -311953.61 
     530    221.04954    163154.34    72.279328    72.279328    36.061168          120    18382.652    17728.862   -35057.151    459.50271   -1526.8006   -437.14385    72.279328    62.595735    36.061168    351.45438   -311949.03 
     540    223.43007    163158.29    72.279911    72.279911    36.061458          120    17853.609    16847.527   -35996.333    645.40369   -1348.1803   -104.03359    72.279911    62.596239    36.061458   -431.73249   -311956.25 
     550     222.4475    163161.86    72.280438    72.280439    36.061722          120     17757.68    17000.051   -36079.478    582.70453   -1200.3696   -81.372039    72.280438    62.596696    36.061722   -440.58267   -311957.04 
     560    221.98028    163164.99      72.2809    72.280901    36.061952          120    18014.538    17101.837   -36535.017    644.85141     -1554.83   -727.43389      72.2809    62.597096    36.061952   -472.88044   -311958.49 
     570    220.94644    163167.66    72.281295    72.281295    36.062149          120     17517.94    16922.471   -36499.977    490.38617   -1557.0125   -913.72361    72.281295    62.597438    36.062149   -686.52181   -311959.25 
     580    221.22644    163169.74    72.281602    72.281603    36.062302          120     17380.89    16574.212   -36769.416    660.93214   -1055.8723   -407.10157    72.281602    62.597705    36.062302   -938.10457   -311962.45 
     590    221.04096    163171.17    72.281812    72.281813    36.062407          120    17689.917    17420.478   -35982.224    831.93628     -1087.67   -434.80527    72.281812    62.597886    36.062407   -290.60943   -311964.63 
     600     219.7291    163172.28    72.281976    72.281977    36.062489          120    17353.265    18038.426    -36283.65    974.90735    -1521.973   -136.81436    72.281976    62.598028    36.062489   -297.31954   -311965.27 
     610    218.98685    163173.17    72.282108    72.282108    36.062555          120     17586.53    18518.606   -36063.712    827.62713   -1839.0137   -110.34656    72.282108    62.598142    36.062555    13.808155   -311966.28 
     620    217.41894    163174.03    72.282235    72.282236    36.062618          120    17735.069    18418.653   -35553.583     727.2899   -2213.7782    33.832229    72.282235    62.598252    36.062618    200.04675   -311965.34 
     630    217.70384    163174.97    72.282375    72.282375    36.062688          120    17641.495    18563.514   -36366.379    491.67284   -1942.3432   -230.58229    72.282375    62.598373    36.062688   -53.789982   -311968.73 
     640    217.80489    163175.86    72.282505    72.282506    36.062753          120    17670.138    17945.821   -35804.963    578.40412   -1655.3081     294.1063    72.282505    62.598487    36.062753   -63.001083   -311970.87 
     650    216.43318    163176.65    72.282622    72.282623    36.062811          120    18123.098    17630.297   -36249.923    822.11785    -1354.953   -218.83883    72.282622    62.598588    36.062811    -165.5097   -311970.51 
     660    215.97871    163177.28    72.282715    72.282716    36.062858          120    17565.411    17352.476   -36411.288    544.60995   -1679.2304    -768.1775    72.282715    62.598668    36.062858   -497.80029   -311971.81 
     670    213.21285    163177.57    72.282758    72.282758    36.062879          120    17364.597    17495.886   -36069.189    649.41895   -2089.5039   -173.00674    72.282758    62.598705    36.062879   -402.90222   -311968.63 
     680     213.5078    163177.59    72.282761    72.282761     36.06288          120    17764.382    17519.992   -35666.546    890.51336   -2430.4463    158.83236    72.282761    62.598708     36.06288   -127.39068   -311970.17 
     690    213.91869     163177.5    72.282748    72.282749    36.062874          120    17850.245    17500.659   -35698.479    590.44702   -2619.4409   -297.20483    72.282748    62.598697    36.062874   -115.85832   -311973.07 
     700    213.71304    163177.34    72.282724    72.282724    36.062862          120    17841.216    17732.386   -35988.388    677.44552   -2724.3335   -394.66181    72.282724    62.598676    36.062862   -138.26185   -311974.32 
     710    216.86851    163177.09    72.282688    72.282688    36.062844          120    17842.635    17743.596   -35855.997    1059.5937   -2615.4362    -328.8472    72.282688    62.598644    36.062844   -89.921722   -311981.16 
     720    213.72239    163176.77     72.28264     72.28264     36.06282          120    17397.744    17687.031   -35993.432    560.13306   -2533.3002    -567.1341     72.28264    62.598603     36.06282   -302.88572   -311976.31 
     730    212.58239    163176.24    72.282561    72.282562    36.062781          120    16737.401    17084.113   -35896.243    34.926649   -2504.8769   -221.34675    72.282561    62.598535    36.062781   -691.57617   -311974.47 
     740    214.43515    163175.23    72.282412    72.282413    36.062707          120    16344.133    16219.896   -36044.282    -27.31805   -2754.8799     140.6517    72.282412    62.598406    36.062707   -1160.0842   -311978.34 
     750    212.47183    163173.48    72.282154    72.282155    36.062578          120    16089.331    16375.982   -35795.309    131.59948   -2279.2759    607.52531    72.282154    62.598183    36.062578   -1109.9986   -311974.79 
     760    213.44206    163171.04    72.281794    72.281794    36.062398          120    16186.223    17177.691   -35847.152    153.06254   -1995.8262    161.24722    72.281794     62.59787    36.062398   -827.74608   -311976.45 
     770    213.67545    163168.09    72.281358    72.281359    36.062181          120    16751.452    17021.856   -35816.837    376.13227    -1591.616   -593.60068    72.281358    62.597493    36.062181   -681.17645   -311976.66 
     780    213.97298    163164.78    72.280869     72.28087    36.061937          120    17411.631     16875.19   -35190.626    1127.9699    -1861.254   -597.27685    72.280869    62.597069    36.061937   -301.26833    -311976.3 
     790    215.71569    163161.39    72.280369    72.280369    36.061687          120    17856.238    17370.315   -34644.966    737.70586     -2436.13   -495.04389    72.280369    62.596636    36.061687    193.86227   -311978.46 
     800    215.54747    163158.18    72.279894    72.279895     36.06145          120    17718.126    17129.477    -35517.37    835.08442   -2933.0798   -124.00603    72.279894    62.596225     36.06145   -223.25578   -311977.33 
     810    214.18361    163154.95    72.279417    72.279418    36.061212          120    17462.412    17590.422   -35573.741    411.30792   -2282.6675   -406.63762    72.279417    62.595812    36.061212   -173.63578   -311972.81 
     820    215.25588    163151.71    72.278939     72.27894    36.060974          120    17476.957    18162.286   -35619.612    535.31814   -1814.2674   -787.75784    72.278939    62.595398    36.060974    6.5438491   -311973.34 
     830    213.79189    163148.56    72.278474    72.278474    36.060742          120    17967.659    17626.395   -35902.924      575.618   -2158.0118   -625.58195    72.278474    62.594995    36.060742   -102.95676   -311969.06 
     840    214.80536    163145.43    72.278013    72.278013    36.060511          120    17876.222    17000.759   -35270.316    936.20591   -2441.9182   -562.75419    72.278013    62.594596    36.060511   -131.11147   -311969.35 
     850    217.73363    163142.33    72.277554    72.277554    36.060283          120    18114.252    17028.887   -35416.313    706.15856   -2387.6934   -802.83782    72.277554    62.594198    36.060283   -91.058414   -311973.01 
     860    218.22416    163139.24    72.277098    72.277099    36.060055          120    17490.721    17389.565   -35706.881    731.51222   -1938.4595   -56.330473    72.277098    62.593804    36.060055   -275.53161   -311972.22 
     870    218.96857    163136.12    72.276637    72.276637    36.059825          120    17500.711    17552.662   -34826.473    891.12226   -2038.3484    103.05242    72.276637    62.593404    36.059825    75.633198   -311971.36 
     880    217.59948     163133.1    72.276191    72.276192    36.059603          120    17345.199      17664.3   -35365.427    961.17487   -2232.3238     29.70628    72.276191    62.593018    36.059603    -118.6424   -311966.51 
     890    217.21191    163130.11    72.275749     72.27575    36.059382          120    17111.873    17593.609   -34918.594    1384.7511   -2117.2176   -68.974503    72.275749    62.592636    36.059382   -71.037573   -311963.29 
     900    220.77251    163127.18    72.275317    72.275318    36.059167          120    17743.217    17801.988   -34723.751    1135.4791   -1905.9591   -621.82068    72.275317    62.592261    36.059167    273.81794   -311967.68 
     910     222.7849    163124.52    72.274924    72.274924     36.05897          120    17745.249    18033.915   -35194.666    853.50639   -2268.5621   -423.12681    72.274924    62.591921     36.05897    194.83311   -311969.16 
     920    223.29559    163122.06     72.27456    72.274561    36.058789          120    17998.652     17559.12   -36447.387    753.14948   -1854.7924   -36.024222     72.27456    62.591606    36.058789   -296.53819   -311968.49 
     930    221.57696     163119.5    72.274182    72.274183      36.0586          120    18602.186    17403.114   -37251.812    1031.4492   -1610.2248   -506.51628    72.274182    62.591278      36.0586    -415.5042   -311962.84 
     940    221.24923    163116.77    72.273779     72.27378    36.058399          120    19739.915    17369.695   -36469.792    1662.3123   -1484.6188   -450.88841    72.273779     62.59093    36.058399    213.27251   -311960.11 
     950    219.92271    163114.27     72.27341    72.273411    36.058215          120    19816.391    18291.391   -36343.969    1656.6825   -2001.2896   -425.97627     72.27341     62.59061    36.058215    587.93739   -311955.63 
     960    224.27306    163112.22    72.273108    72.273109    36.058065          120    19279.179    18330.085   -36122.311    803.23933   -1503.7622   -328.72077    72.273108    62.590348    36.058065    495.65108   -311962.14 
     970     223.1429    163110.62    72.272871    72.272872    36.057946          120    19301.607    18584.548   -35419.438    1064.8797   -1418.3762    -210.3437    72.272871    62.590143    36.057946    822.23902   -311958.01 
     980    224.93535    163109.64    72.272726    72.272727    36.057874          120    19788.816    18605.263   -35383.339    1406.5192   -1472.8787   -384.46531    72.272726    62.590017    36.057874    1003.5804   -311959.76 
     990    225.57652     163109.4    72.272692    72.272692    36.057857          120    20397.108    18143.139     -34702.3    1420.8398   -1528.3923   -554.09553    72.272692    62.589988    36.057857    1279.3157   -311960.07 
    1000    226.05076    163110.04    72.272785    72.272786    36.057903          120    20006.475    18197.761   -34899.091    812.47412   -2126.5448    -714.4413    72.272785    62.590068    36.057903    1101.7153    -311959.7 
    1010    225.39205    163111.44    72.272992    72.272992    36.058007          120    20014.551    18025.778   -35124.851    685.03266   -1882.1205   -694.33047    72.272992    62.590247    36.058007    971.82604   -311957.17 
    1020    226.48418    163113.49    72.273295    72.273296    36.058158          120    19774.844    18085.624    -34428.33    241.17012   -1340.1748   -746.75918    72.273295     62.59051    36.058158    1144.0463   -311958.57 
    1030    225.72242    163116.27    72.273706    72.273706    36.058363          120    19165.148    19043.711   -34338.514    -30.55855   -1783.2099   -798.57832    72.273706    62.590866    36.058363    1290.1151   -311956.54 
    1040     224.3286    163119.84    72.274233    72.274233    36.058626          120    19329.946    19120.899   -34830.188    339.60182    -1893.134   -676.85467    72.274233    62.591322    36.058626    1206.8854    -311953.6 
    1050    225.05931    163124.14    72.274868    72.274869    36.058943          120    19161.843    18602.076   -34508.712     568.0811   -2200.9365    17.596833    72.274868    62.591873    36.058943    1085.0689   -311954.97 
    1060    227.01357    163129.07    72.275596    72.275596    36.059306          120    18402.942    18831.084    -34403.08    897.02643   -1887.3436    -264.7372    72.275596    62.592502    36.059306    943.64891   -311958.98 
    1070    227.39401    163134.48    72.276395    72.276395    36.059704          120    18503.199    18003.088    -34917.05    1379.0773   -1142.8011   0.29040356    72.276395    62.593195    36.059704    529.74543   -311960.05 
    1080    225.16459     163140.1    72.277225    72.277226    36.060119          120    18196.283    17471.205   -35316.196     1057.576   -1820.3759   -495.19256    72.277225    62.593914    36.060119    117.09712   -311956.29 
    1090    224.69427    163145.68    72.278049    72.278049     36.06053          120    18407.923    17859.531   -35138.116    1182.9003   -2393.7127    -808.3116    72.278049    62.594627     36.06053    376.44625   -311955.74 
    1100    226.40575    163151.37    72.278889     72.27889    36.060949          120    19173.025    18652.963   -34847.266    1053.3733   -2461.0302   -856.91599    72.278889    62.595355    36.060949    992.90739   -311959.77 
    1110    225.20273    163157.51    72.279796    72.279796    36.061401          120    19245.633    18072.504   -35330.161    1208.2267   -1796.7015   -1323.8626    72.279796     62.59614    36.061401    662.65858   -311958.87 
    1120    225.22629    163163.89    72.280737    72.280738    36.061871          120    18422.441    16838.629   -35556.217     971.4559   -1310.6316   -1124.8336    72.280737    62.596955    36.061871   -98.382604   -311960.33 
    1130    224.81013    163170.05    72.281647    72.281648    36.062325          120    18439.354    16689.657   -35650.571    953.27145   -1301.8225   -471.32027    72.281647    62.597744    36.062325    -173.8532   -311961.09 
    1140    225.98644    163175.92    72.282515    72.282516    36.062758          120    18730.918    16771.747   -35493.404    1169.2123   -1705.7264   -475.89557    72.282515    62.598495    36.062758    3.0867855   -311964.97 
    1150    223.09992    163181.63    72.283357    72.283358    36.063178          120    19127.088    16985.402   -35199.671    994.68745   -1425.8851   -611.02891    72.283357    62.599224    36.063178    304.27277   -311961.69 
    1160     223.6532    163187.38    72.284206    72.284207    36.063602          120    19026.969    17305.605   -34175.341    579.69805   -1306.3996   -583.65198    72.284206    62.599959    36.063602    719.07775   -311965.26 
    1170    222.97207     163193.4    72.285095    72.285096    36.064045          120    18719.424    17444.922   -34984.451    147.89795   -1143.8705   -209.28066    72.285095    62.600729    36.064045    393.29849   -311965.52 
    1180     221.7781    163199.48    72.285993    72.285994    36.064493          120    18664.449    16656.238   -36172.482    547.25169   -1518.9335   -207.16886    72.285993    62.601507    36.064493   -283.93171   -311965.93 
    1190    221.42618     163205.2    72.286838    72.286838    36.064914          120    17982.223    16663.441   -36820.726    493.89637   -1977.1708   -396.43264    72.286838    62.602238    36.064914   -725.02063   -311967.79 
    1200    221.22951    163210.26    72.287584    72.287585    36.065287          120    17510.628    16717.039   -36971.814    239.51464   -1687.9207   -171.69786    72.287584    62.602885    36.065287   -914.71581   -311969.23 
    1210    218.96965    163214.56     72.28822    72.288221    36.065604          120    18113.793    16860.657   -36711.916    282.19067   -2144.4596    457.84792     72.28822    62.603436    36.065604   -579.15534   -311967.53 
    1220    219.49804    163218.35    72.288778    72.288779    36.065883          120    18623.108    17021.972   -36293.753    202.11583   -2491.5105    683.86111    72.288778    62.603919    36.065883   -216.22433    -311970.7 
    1230    219.41359     163221.8    72.289288    72.289289    36.066137          120    18524.901    16968.128   -37289.518    717.05493   -2518.6221    448.39456    72.289288    62.604361    36.066137   -598.82973   -311973.04 
    1240    218.49222    163224.75    72.289724    72.289724    36.066354          120    17981.663    16846.313   -36926.945    743.33966   -2423.4479    189.81885    72.289724    62.604738    36.066354   -699.65635   -311973.62 
    1250    217.43618    163227.16     72.29008    72.290081    36.066532          120    17892.519    16963.639   -35607.083    867.69928   -2483.3303    110.55445     72.29008    62.605047    36.066532   -250.30815   -311973.79 
    1260    216.13901     163229.3    72.290396    72.290396     36.06669          120    18100.617    17087.775   -36010.182    617.59431   -2313.2005    74.516494    72.290396     62.60532     36.06669   -273.92958   -311973.22 
    1270    215.58926    163231.16     72.29067     72.29067    36.066826          120    18201.398    16540.093   -36648.045    512.90514   -1897.6999    319.36612     72.29067    62.605557    36.066826   -635.51802   -311974.15 
    1280     217.9116    163232.52     72.29087    72.290871    36.066926          120    18084.212    16302.457   -37198.296    386.10316   -2214.3882    208.90906     72.29087    62.605731    36.066926   -937.20908    -311980.3 
    1290    216.14134     163233.2    72.290972    72.290972    36.066977          120     17867.77    16817.927   -37150.496    85.724357   -2225.7728    352.05627    72.290972    62.605819    36.066977   -821.59945   -311978.67 
    1300    214.60846    163233.26     72.29098    72.290981    36.066981          120    16911.563    17374.111   -37144.824     490.3455   -2352.8322    693.90487     72.29098    62.605826    36.066981   -953.04982   -311977.26 
    1310     213.6626    163232.67    72.290893    72.290894    36.066938          120    16920.299    17278.772   -37079.225    854.92331   -2280.1182    239.90132    72.290893    62.605751    36.066938   -960.05143   -311976.43 
    1320    216.49872    163231.43     72.29071    72.290711    36.066846          120    17067.022    17063.716   -36984.182    495.20702   -1893.1618   -215.23507     72.29071    62.605592    36.066846   -951.14765   -311982.81 
    1330    215.87884     163229.6     72.29044     72.29044    36.066712          120    17523.709    17778.271   -36356.017    304.52343   -1705.6128   -368.94655     72.29044    62.605358    36.066712   -351.34535   -311982.73 
    1340    216.85437    163227.54    72.290136    72.290136     36.06656          120    18058.517    17874.342   -36339.436    307.90343   -1574.1351   -346.20103    72.290136    62.605094     36.06656   -135.52602   -311985.16 
    1350    216.95212    163225.41    72.289821    72.289821    36.066403          120    17913.752    16893.716   -36287.379    652.03546   -1743.6345   -931.18436    72.289821    62.604822    36.066403   -493.30346   -311986.22 
    1360    214.36715       163223    72.289466    72.289467    36.066226          120    17819.432    16941.709   -36497.695    1247.5012   -1718.3224   -865.35893    72.289466    62.604515    36.066226   -578.85117   -311981.62 
    1370    214.26139    163220.32     72.28907    72.289071    36.066028          120    18687.588      17845.7   -36302.621    994.26069   -2028.1634   -575.43652     72.28907    62.604172    36.066028    76.888692   -311981.71 
    1380    215.33451    163217.73    72.288688    72.288689    36.065838          120    18435.466    18119.259   -36236.574      431.604   -1953.4049   -231.99023    72.288688    62.603841    36.065838    106.05023   -311983.87 
    1390    215.53516    163215.29    72.288327    72.288328    36.065658          120    17943.555    18041.053   -36324.496    628.59999   -2125.1151   -172.19145    72.288327    62.603528    36.065658   -113.29577   -311984.34 
    1400    212.53671    163212.86    72.287969     72.28797    36.065479          120    17975.846    18057.529   -36271.069    425.74328   -2236.1158 -0.064816571    72.287969    62.603218    36.065479   -79.231241   -311977.99 
    1410    213.42284    163210.45    72.287612    72.287613    36.065301          120    18712.298    17921.951   -36272.159    415.88643   -2491.9659   -384.43128    72.287612    62.602909    36.065301    120.69642   -311979.16 
    1420    213.64263     163208.2     72.28728     72.28728    36.065135          120    18841.964    18073.013   -35536.893    434.48639   -2320.5588   -750.20254     72.28728    62.602621    36.065135    459.36168   -311978.38 
    1430    215.40877    163206.31    72.287001    72.287001    36.064996          120    19010.831    17953.315   -35239.954     829.1982   -2132.7842    -801.2977    72.287001     62.60238    36.064996    574.73072   -311980.87 
    1440      215.482    163204.87    72.286788    72.286789     36.06489          120    18702.315    18366.561   -35093.644    794.48649   -2215.4482   -911.76768    72.286788    62.602196     36.06489    658.41048   -311979.96 
    1450    215.16905     163203.9    72.286645    72.286645    36.064818          120    18208.286    18162.354   -35469.041    786.25314   -2078.5008    -773.0943    72.286645    62.602071    36.064818    300.53321   -311978.28 
    1460    218.19343    163203.17    72.286538    72.286539    36.064765          120    17821.221    18236.074   -35927.815    890.61325   -1585.4021   -646.30414    72.286538    62.601979    36.064765    43.159895   -311982.43 
    1470    218.39285    163202.53    72.286444    72.286444    36.064718          120    18070.412    17722.588   -35364.405    948.92013   -1604.7417   -550.32851    72.286444    62.601897    36.064718    142.86501   -311980.95 
    1480    217.89422    163202.01    72.286367    72.286367     36.06468          120    18357.043    17504.473   -35076.278    902.28176   -1730.3982   -564.37051    72.286367    62.601831     36.06468     261.7458   -311978.56 
    1490    218.66719    163201.69     72.28632     72.28632    36.064656          120     18348.05    17764.052   -34801.248    1054.1686   -2391.9154   -698.78132     72.28632     62.60179    36.064656    436.95108   -311978.22 
    1500    218.19403    163201.68    72.286318    72.286319    36.064655          120    18218.317    18027.352   -34886.674    833.46743   -2399.7842   -320.00164    72.286318    62.601788    36.064655    452.99833   -311975.17 
    1510      217.608    163202.01    72.286367    72.286368     36.06468          120    18740.074    18209.316   -34606.759     615.2639   -1836.0411    251.18329    72.286367    62.601831     36.06468    780.87705   -311972.64 
    1520    219.62849    163202.91    72.286499    72.286499    36.064745          120    18916.213    18929.139   -33643.661    802.85488   -1728.4312   -81.118773    72.286499    62.601945    36.064745    1400.5638    -311974.6 
    1530    221.32664    163204.71    72.286765    72.286765    36.064878          120    19178.729     19061.16   -33726.299    919.99707   -1767.7099   -590.77043    72.286765    62.602175    36.064878      1504.53   -311975.75 
    1540    219.70789    163207.49    72.287176    72.287177    36.065083          120    19594.721    18753.937   -34487.032    850.75074   -2031.9766   -272.24145    72.287176    62.602532    36.065083    1287.2086   -311970.94 
    1550    220.36643    163211.08    72.287706    72.287706    36.065348          120    19087.097    18511.688   -35301.437    1040.6037   -2150.3566   -248.09013    72.287706     62.60299    36.065348    765.78265    -311969.9 
    1560    222.48587    163215.13    72.288304    72.288304    36.065646          120    19212.949    17875.865   -35448.153    860.54255   -2027.9537   -148.76905    72.288304    62.603508    36.065646    546.88692   -311971.94 
    1570    221.16116    163219.43    72.288938    72.288938    36.065962          120    18858.679    17245.693   -35583.088    592.46321   -2065.0216   -74.987557    72.288938    62.604057    36.065962    173.76118   -311967.57 
    1580    221.23508    163223.72    72.289572    72.289572    36.066278          120    18436.865    17048.694   -35819.726    1027.5707   -1796.8206   -412.51707    72.289572    62.604606    36.066278    -111.3891   -311966.12 
    1590    222.47478    163227.84     72.29018     72.29018    36.066582          120    18409.738     17301.54   -35595.957    1090.0761   -2226.8801   -678.87828     72.29018    62.605133    36.066582    38.440386   -311967.07 
    1600    222.33705    163231.88    72.290776    72.290777    36.066879          120    18855.416      17311.7   -35132.268    1107.5842    -2724.482   -710.25037    72.290776    62.605649    36.066879    344.94939   -311965.16 
    1610    224.02647    163236.04    72.291391    72.291392    36.067186          120    19100.266    18048.223   -35441.827    883.20258   -2847.6453   -171.98481    72.291391    62.606182    36.067186     568.8874   -311966.76 
    1620    224.66642    163240.48    72.292047    72.292047    36.067513          120    18989.724    18133.269   -35435.502    1104.6274   -2530.6997    -432.4668    72.292047    62.606749    36.067513    562.49697   -311966.58 
    1630     224.0523    163245.15    72.292736    72.292737    36.067857          120    18867.633    16842.378   -36458.407    689.87034   -2153.3094   -609.46487    72.292736    62.607347    36.067857   -249.46526   -311964.67 
    1640    223.49837    163249.55    72.293385    72.293386    36.068181          120    18142.184    16562.692   -36821.508    718.08533    -2301.108   -767.74807    72.293385    62.607909    36.068181   -705.54396    -311962.5 
    1650    223.60745    163253.39    72.293951    72.293951    36.068463          120    17914.155    17059.832   -36169.845    1021.5802    -1996.941   -1118.2972    72.293951    62.608399    36.068463   -398.61928   -311961.95 
    1660    224.10039    163256.81    72.294456    72.294456    36.068715          120     17769.96    17220.021   -36384.325    1008.9475   -2291.2143   -1315.7083    72.294456    62.608836    36.068715   -464.78142   -311961.96 
    1670    225.43501    163259.82    72.294901    72.294901    36.068937          120    17854.671    17162.561   -36256.108    863.99988   -2503.7117   -775.66828    72.294901    62.609221    36.068937   -412.95885   -311964.25 
    1680    227.12964    163262.48    72.295293    72.295294    36.069133          120    17971.379    17188.236   -35837.945    830.74784    -1630.945   -517.54829    72.295293    62.609561    36.069133   -226.11025   -311966.96 
    1690    224.03329    163264.86    72.295645    72.295645    36.069308          120     17735.69    16946.188   -36456.367    861.61422   -1622.5451   -497.54081    72.295645    62.609866    36.069308   -591.49661   -311961.22 
    1700    224.84295    163266.79    72.295929     72.29593     36.06945          120    17562.679    16631.541    -36054.82    589.54304   -1938.4562   -132.95764    72.295929    62.610112     36.06945    -620.1999   -311963.18 
    1710    223.62635    163268.22    72.296141    72.296142    36.069556          120    17325.276    16628.146   -35897.214    878.26691   -1664.9143    -358.0527    72.296141    62.610295    36.069556   -647.93085   -311960.91 
    1720    223.29263    163269.22    72.296288    72.296289    36.069629          120    17945.376    17696.485   -35504.445    1146.9258   -1784.5396   -729.82945    72.296288    62.610423    36.069629    45.805273   -311961.09 
    1730    225.42019    163270.16    72.296426    72.296427    36.069698          120      17870.9    18310.616    -36119.68    950.12342   -1961.6384   -435.48168    72.296426    62.610543    36.069698    20.612027   -311965.17 
    1740    225.91157    163271.08    72.296562    72.296563    36.069766          120    18228.508     17565.59    -36425.42    1271.4971   -1911.7732   -216.07639    72.296562     62.61066    36.069766   -210.44049   -311966.91 
    1750    224.69777    163271.83    72.296673    72.296674    36.069822          120    18250.964    17337.609   -36852.294    1542.2501   -1594.7696   -348.48099    72.296673    62.610756    36.069822   -421.24026   -311965.29 
    1760     222.4225    163272.26    72.296737    72.296738    36.069854          120    18317.552    17391.287   -37290.361    1641.3555   -1155.0811   -351.90616    72.296737    62.610812    36.069854   -527.17405    -311962.2 
    1770    224.86074    163272.36    72.296751    72.296752     36.06986          120    18524.825    17927.804   -36588.712    1295.6176   -1387.7531   -631.65478    72.296751    62.610824     36.06986   -45.360892   -311968.17 
    1780    225.40977    163272.36    72.296751    72.296752     36.06986          120    18371.293    17439.847   -36619.843    1543.6252   -1500.9988   -772.47998    72.296751    62.610824     36.06986   -269.56765   -311970.94 
    1790    222.05678    163272.21    72.296729    72.296729    36.069849          120    18215.929    17612.672   -36355.813    1421.6064   -1846.4923   -841.08604    72.296729    62.610804    36.069849   -175.73717   -311966.33 
    1800    220.51378    163271.92    72.296687    72.296688    36.069829          120    18226.883    17737.464    -36482.82    970.39457   -2250.3591   -663.13559    72.296687    62.610769    36.069829   -172.82426   -311965.24 
    1810    221.77543    163271.52    72.296628    72.296629    36.069799          120    18513.621    16743.208   -36041.573    897.19852   -2080.7956    -703.6246    72.296628    62.610717    36.069799   -261.58129   -311969.47 
    1820     221.6127    163270.96    72.296545    72.296545    36.069757          120    18660.982    16825.781   -36437.847    860.33458    -1783.705   -804.39956    72.296545    62.610645    36.069757    -317.0281   -311971.01 
    1830    223.11495    163270.19    72.296432    72.296432    36.069701          120    19042.996    16854.563   -36279.175    546.27528   -2068.3812   -879.20847    72.296432    62.610547    36.069701    -127.2052   -311975.88 
    1840    220.25848    163269.38    72.296312    72.296312    36.069641          120    19805.406    17464.528   -36103.411     487.6276   -2354.7017   -894.99894    72.296312    62.610443    36.069641    388.84116   -311972.25 
    1850    221.61098    163268.82    72.296229    72.296229      36.0696          120    18976.647    17753.555   -36140.214    825.06967    -2206.854   -481.33744    72.296229    62.610371      36.0696     196.6625    -311977.1 
    1860     221.1642    163268.41    72.296169     72.29617     36.06957          120     18224.97    17816.802   -35787.333    645.64225   -1938.9617   -553.59098    72.296169     62.61032     36.06957     84.81255   -311977.92 
    1870    220.05109    163268.09    72.296121    72.296122    36.069546          120    18492.988    17418.767   -35519.074    868.15774   -2303.8322    140.78444    72.296121    62.610278    36.069546    130.89363   -311977.65 
    1880    218.29511    163267.86    72.296088    72.296089     36.06953          120    18624.282    17199.694   -35747.581    1039.4003   -2294.9256   -238.94397    72.296088    62.610249     36.06953    25.464761   -311976.18 
    1890    217.11023    163267.69    72.296062    72.296063    36.069517          120    18408.665    17966.867   -35306.057    1073.1028   -3014.3205   -764.09197    72.296062    62.610227    36.069517     356.4916   -311975.63 
    1900     216.1073    163267.72    72.296067    72.296067    36.069519          120    18257.383    18245.126   -35813.321    581.45341   -2835.5124    73.918278    72.296067    62.610231    36.069519    229.72943   -311975.32 
    1910    215.81683    163267.93    72.296097    72.296098    36.069534          120     18344.94    17939.119   -35884.086    752.55648   -2330.3098    49.184307    72.296097    62.610258    36.069534    133.32417   -311976.04 
    1920    217.34086    163268.24    72.296143    72.296144    36.069557          120    18305.331    17881.757   -35454.638    516.02282   -2134.5875   -391.39645    72.296143    62.610297    36.069557    244.14992   -311980.95 
    1930    216.17468    163268.66    72.296206    72.296206    36.069588          120    18280.986    17598.297   -36300.515    378.87271    -1993.255   -581.44562    72.296206    62.610351    36.069588   -140.41039   -311979.95 
    1940    216.84632    163268.98    72.296252    72.296253    36.069612          120    18360.307    17049.672    -37185.42    846.38437   -2186.8063   -796.47767    72.296252    62.610392    36.069612   -591.81385   -311982.43 
    1950    215.47787    163268.87    72.296236    72.296237    36.069603          120     17686.93    16593.445   -37321.103    1279.0386   -2307.6884   -652.91326    72.296236    62.610378    36.069603   -1013.5761   -311981.34 
    1960    216.21518    163268.07    72.296118    72.296119    36.069545          120    17422.932    16437.371   -37059.892    1101.6079   -1912.7934   -361.42094    72.296118    62.610276    36.069545   -1066.5297   -311983.78 
    1970    215.26316    163266.58    72.295899    72.295899    36.069435          120    17885.911    16950.934   -36220.845    526.88113    -1949.521   -625.81963    72.295899    62.610085    36.069435   -461.33327   -311982.88 
    1980    216.46624     163264.8    72.295636    72.295636    36.069304          120    18088.025    17570.094   -35589.781    372.04888   -2269.1053   -550.83513    72.295636    62.609858    36.069304    22.779494   -311985.86 
    1990    214.53638    163263.06    72.295379    72.295379    36.069176          120    18656.297    17398.671   -35618.145    208.91357   -2430.5784   -1005.8622    72.295379    62.609635    36.069176    145.60773   -311982.79 
    2000    214.57418    163261.46    72.295142    72.295143    36.069058          120    19015.839    16974.799   -35372.326    273.42658   -1896.1237   -747.09063    72.295142     62.60943    36.069058    206.10443   -311983.43 
    2010    216.52337    163260.03    72.294932    72.294932    36.068953          120     18725.94    17353.336    -35733.31     276.6659   -1846.3743    -500.5398    72.294932    62.609248    36.068953    115.32232   -311986.82 
    2020    216.98682    163258.74    72.294742    72.294743    36.068858          120    18666.876      17591.5   -35222.371    341.49426   -2014.6238   -510.97195    72.294742    62.609084    36.068858    345.33522   -311987.46 
    2030    217.04639    163257.72     72.29459    72.294591    36.068782          120    18669.971    17934.405   -35483.198    829.18625   -2528.2382   -671.48719     72.29459    62.608953    36.068782    373.72601   -311987.64 
    2040    216.23422    163256.98    72.294481    72.294482    36.068728          120    18503.083    18282.409   -35997.041    667.19281   -2609.9166   -397.42517    72.294481    62.608858    36.068728    262.81672   -311985.72 
    2050      214.465    163256.46    72.294405    72.294406     36.06869          120     19354.29    18191.872   -36183.616    421.23632   -1651.7972    -232.3738    72.294405    62.608792     36.06869     454.1822   -311981.87 
    2060    214.99985    163256.26    72.294375    72.294375    36.068675          120    19243.906    17867.382   -35663.581    378.35927   -1607.8297   -626.60525    72.294375    62.608766    36.068675    482.56929   -311981.98 
    2070    216.51559    163256.41    72.294397    72.294397    36.068686          120     19515.71    18206.747   -35720.007    435.32814    -1158.759   -467.43981    72.294397    62.608785    36.068686    667.48343   -311983.69 
    2080    215.88677    163257.01    72.294486    72.294487    36.068731          120    19129.375    18508.211   -35754.302    937.21772   -1272.5982   -867.42812    72.294486    62.608862    36.068731    627.76123   -311981.74 
    2090    217.11289    163258.02    72.294635    72.294636    36.068805          120    18218.551    17628.374     -35547.9    958.53546   -1821.4263   -724.02445    72.294635    62.608991    36.068805    99.674875   -311983.25 
    2100    217.46067    163259.07     72.29479    72.294791    36.068882          120    17575.318    17132.425   -36484.865    1229.4855   -1810.8431    -155.4542     72.29479    62.609126    36.068882   -592.37431   -311982.54 
    2110    216.42872    163259.69    72.294881    72.294882    36.068927          120    17170.435    16222.838   -36740.036    1431.4607   -2500.0224     57.16791    72.294881    62.609204    36.068927   -1115.5878    -311979.6 
    2120    216.49267    163259.54     72.29486     72.29486    36.068917          120    17391.436    16531.617   -37031.091    1497.1615   -2398.1481    1.6425415     72.29486    62.609186    36.068917   -1036.0126   -311978.05 
    2130      217.772    163258.67    72.294731    72.294732    36.068853          120    17533.929    15778.247   -36369.185    1225.0559   -2419.0728    276.90496    72.294731    62.609074    36.068853   -1019.0031   -311979.45 
    2140     218.0978    163257.12    72.294502    72.294503    36.068739          120    17894.443    15772.779   -36237.258    555.52931   -2394.8163    833.19153    72.294502    62.608876    36.068739   -856.67878   -311978.05 
    2150    218.62699    163255.01    72.294191    72.294192    36.068583          120    17820.667    16374.661    -35778.89    454.83699   -1122.0704    923.82398    72.294191    62.608607    36.068583   -527.85403   -311977.53 
    2160    219.15993    163252.58    72.293832    72.293833    36.068404          120     17637.91     17434.14   -35689.105    774.61774   -826.94328    268.38791    72.293832    62.608296    36.068404   -205.68472   -311976.43 
    2170    220.48453    163250.03    72.293455    72.293455    36.068216          120    17119.062     17865.02   -35944.372    1148.4102   -1255.2665    -483.5061    72.293455    62.607969    36.068216    -320.0967   -311977.07 
    2180    220.45146    163247.34    72.293059     72.29306    36.068018          120    17927.515    17737.236   -35778.629    996.81337   -1420.5956   -872.38549    72.293059    62.607626    36.068018   -37.959095   -311974.98 
    2190    223.21084    163244.66    72.292662    72.292663    36.067821          120    18170.632    17785.138    -36406.92    1111.3773   -1675.5249   -752.35694    72.292662    62.607283    36.067821    -150.3833    -311978.6 
    2200    221.76817    163241.96    72.292264    72.292265    36.067622          120    18684.409    17798.306   -36211.908    587.40394   -2288.5493     -392.728    72.292264    62.606938    36.067622    90.269236    -311974.1 
    2210    221.39463    163239.38    72.291883    72.291884    36.067432          120    19089.062    17990.783   -36127.372     932.9651   -2457.3651   -286.50885    72.291883    62.606608    36.067432    317.49084   -311972.04 
    2220     223.4615    163237.11    72.291549    72.291549    36.067265          120    19490.732    18817.459   -35174.529    1154.7182   -2669.5616    219.42578    72.291549    62.606318    36.067265    1044.5544   -311974.34 
    2230    225.30395    163235.62    72.291329     72.29133    36.067155          120     19815.36    19190.135    -34491.06    941.88277   -2124.0578    552.08322    72.291329    62.606128    36.067155    1504.8115   -311976.83 
    2240    222.76262    163235.17    72.291262    72.291263    36.067122          120    20048.797    19048.564   -35528.956    1135.7897   -2115.2028    1149.7547    72.291262     62.60607    36.067122    1189.4684   -311970.56 
    2250    224.26878    163235.59    72.291324    72.291325    36.067153          120    19815.149     18802.23   -34968.177    1337.7757   -1718.4291    467.28458    72.291324    62.606124    36.067153    1216.4005   -311971.85 
    2260    225.69086     163236.8    72.291503    72.291503    36.067242          120    18704.142    18984.717   -35720.999    1549.7308   -1577.9672   -353.04749    72.291503    62.606279    36.067242    655.95348   -311974.28 
[...]
   99200    220.08151    163668.71    72.355205    72.355206    36.099024          120     17615.31    18846.606   -36868.907    787.85919   -1680.8441   -318.37407    72.355205    62.661447    36.099024   -135.66366   -312027.65 
   99210    219.35003    163664.25    72.354549    72.354549    36.098697          120    17481.362    18986.254   -36789.438     847.3898   -1418.5992   -517.80227    72.354549    62.660878    36.098697   -107.27385   -312025.33 
   99220    219.72511    163659.74    72.353884    72.353884    36.098365          120    17237.606    19070.782   -36347.783    709.88931   -1103.5823   -605.86758    72.353884    62.660302    36.098365   -13.131368   -312025.79 
   99230    219.77365     163655.2    72.353214    72.353215    36.098031          120    17207.707    18873.186   -36831.613    554.59887   -1056.9172   -760.51981    72.353214    62.659722    36.098031   -250.23994   -312025.11 
   99240    219.36832    163650.47    72.352517    72.352518    36.097683          120    16606.978    18563.456    -37299.02    735.66722   -1398.1876    -596.6756    72.352517    62.659119    36.097683    -709.5284    -312024.4 
   99250    217.79106    163645.27    72.351751    72.351752    36.097301          120    16708.407    18570.469   -37717.795    621.70989   -1745.2447   -722.84728    72.351751    62.658455    36.097301   -812.97315   -312021.08 
   99260    221.30296    163639.55    72.350908    72.350909     36.09688          120     17297.23    19073.466   -37089.049    326.16632   -1667.8012   -591.29822    72.350908    62.657725     36.09688   -239.45079   -312026.85 
   99270    219.66821    163633.65    72.350039    72.350039    36.096446          120    17625.056    19178.965   -36359.319    241.52177   -1886.4308    648.17194    72.350039    62.656972    36.096446     148.2341   -312022.99 
   99280    220.04807    163627.86    72.349186    72.349186    36.096021          120    18028.345    18344.102    -35257.68    166.84135   -877.55499    204.97295    72.349186    62.656234    36.096021    371.58911   -312023.46 
   99290    221.58081    163622.35    72.348373    72.348374    36.095615          120    17919.247     19195.07   -36104.429    557.13947   -1048.2896    -446.7275    72.348373     62.65553    36.095615    336.62946   -312026.27 
   99300    222.07989    163617.08    72.347597    72.347597    36.095228          120    17586.621    19844.894   -36917.368    356.77485   -1694.2494   -291.14871    72.347597    62.654857    36.095228    171.38238   -312026.23 
   99310    219.53198    163611.98    72.346845    72.346846    36.094853          120      18002.6    19859.332     -36682.9    562.06064   -731.51019   -182.47077    72.346845    62.654207    36.094853    393.01064   -312021.29 
   99320    220.91049    163607.18    72.346137    72.346138      36.0945          120    18318.112    19536.067    -35723.19    556.97347    -870.9466    174.60342    72.346137    62.653593      36.0945    710.32955    -312023.6 
   99330    220.94958    163602.92    72.345509     72.34551    36.094186          120    18727.586    20143.576    -34772.03    348.57721   -687.34242   -245.77913    72.345509    62.653049    36.094186    1366.3775   -312023.08 
   99340     221.0622    163599.62    72.345023    72.345024    36.093944          120    19362.755    20784.116   -34872.635    369.46192   -993.20322   -796.03262    72.345023    62.652628    36.093944    1758.0786   -312023.12 
   99350    220.17118    163597.52    72.344714    72.344714     36.09379          120    19007.578     20413.27   -35488.935    496.27117   -1425.2922   -608.14567    72.344714    62.652361     36.09379    1310.6377   -312021.48 
   99360    222.56315    163596.35    72.344541    72.344542    36.093704          120    18469.719    19941.748   -36553.189    741.79661   -1339.8034   -301.48067    72.344541    62.652211    36.093704    619.42602   -312025.42 
   99370    221.13306    163595.67    72.344441    72.344441    36.093653          120     18466.73    20172.142   -37246.825     871.2486   -1579.1407   -25.544726    72.344441    62.652124    36.093653    464.01555   -312022.02 
   99380     221.5198     163595.3    72.344386    72.344387    36.093626          120    18302.952    19938.153   -37381.519    890.41444   -1393.4979   -579.63755    72.344386    62.652077    36.093626     286.5287    -312022.6 
   99390    220.43691    163595.15    72.344364    72.344365    36.093615          120    17849.128    19998.699   -36980.533     855.2117   -1377.6061   -578.08603    72.344364    62.652058    36.093615    289.09789   -312020.62 
   99400    219.59597    163595.22    72.344374    72.344375     36.09362          120    18064.968     20378.77   -36847.542    619.46046   -1081.6356   -607.14034    72.344374    62.652066     36.09362    532.06529   -312018.87 
   99410    221.85442     163595.7    72.344444    72.344445    36.093655          120    19104.123    20355.327   -36415.857    489.60825   -1295.9335    161.66317    72.344444    62.652127    36.093655    1014.5309   -312023.56 
   99420    223.08723    163596.87    72.344618    72.344619    36.093742          120    18642.196    20339.762   -35948.506    878.06065   -846.75211     448.9912    72.344618    62.652278    36.093742    1011.1508   -312025.66 
   99430    223.15979    163598.77    72.344897    72.344898    36.093881          120    18052.529    20254.641   -35389.664    862.99191   -792.46785    209.55775    72.344897    62.652519    36.093881    972.50186   -312025.75 
   99440     220.3053    163601.31    72.345272    72.345272    36.094068          120    18261.634    19854.091   -36218.732    900.21727   -1005.7665   -49.854121    72.345272    62.652844    36.094068    632.33087   -312020.72 
   99450    220.75297    163604.29    72.345712    72.345712    36.094288          120    18463.605    19431.083    -36435.84    1080.3021   -1359.5337   -418.47518    72.345712    62.653225    36.094288    486.28278   -312022.02 
   99460    220.89201    163607.66    72.346208    72.346209    36.094535          120    18481.541    19376.354   -35483.536    576.30693   -1562.2755    208.51864    72.346208    62.653655    36.094535    791.45314   -312022.35 
   99470    220.66092    163611.54    72.346779     72.34678     36.09482          120    19330.796     18619.14   -36570.806    779.47373   -1981.5678    272.87389    72.346779    62.654149     36.09482    459.71019   -312021.65 
   99480    220.99617    163615.69    72.347392    72.347393    36.095126          120    18544.654    18170.161    -37591.64    791.90282   -2220.8307   -265.46002    72.347392     62.65468    36.095126   -292.27493   -312022.47 
   99490    222.58549    163619.65    72.347975    72.347976    36.095417          120    17964.074    18166.065   -38562.728    1092.6489   -1313.2821   -778.30557    72.347975    62.655185    36.095417   -810.86276   -312026.13 
   99500    220.11568    163623.07    72.348479    72.348479    36.095668          120    18023.009    18513.959   -37929.297    952.91479   -1125.0508   -950.92305    72.348479    62.655621    36.095668   -464.10924   -312022.81 
   99510    218.70539    163626.16    72.348935    72.348936    36.095896          120        18291    19187.858   -36953.785    1024.8337   -1309.8056   -416.98083    72.348935    62.656017    36.095896    175.02417   -312020.75 
   99520    220.33185    163629.37    72.349408    72.349409    36.096132          120    18441.799    19935.915   -36671.672    851.42782   -1632.9526   -269.43191    72.349408    62.656426    36.096132    568.68066   -312024.78 
   99530    218.31474    163632.97    72.349939    72.349939    36.096396          120    18970.827    19854.009   -36240.131    757.02591   -1602.6576   -159.64273    72.349939    62.656885    36.096396    861.56835   -312021.26 
   99540    221.64675    163637.12     72.35055     72.35055    36.096701          120    18771.323    19189.161   -36506.121    888.20747   -1098.2966  -0.41920982     72.35055    62.657415    36.096701    484.78749   -312028.99 
   99550    218.91431    163641.62    72.351214    72.351214    36.097033          120    18230.749    19112.279   -36324.033    1025.5559   -802.37871   -388.20062    72.351214     62.65799    36.097033    339.66505   -312024.32 
   99560    222.47258    163646.32    72.351906    72.351907    36.097378          120    17479.957    18954.135   -36828.764    932.85149   -662.16477   -565.44444    72.351906    62.658589    36.097378   -131.55751   -312032.13 
   99570     218.9619    163650.97    72.352592    72.352592     36.09772          120     17479.65    19555.821   -36940.373    1122.4753    -586.6685    -720.0631    72.352592    62.659183     36.09772    31.699411   -312025.89 
   99580    217.11714    163655.65    72.353281    72.353282    36.098064          120    17588.598     19977.71   -36250.942     996.7542   -1304.9662   -507.65349    72.353281     62.65978    36.098064    438.45505   -312023.35 
   99590    219.71757    163660.59    72.354008    72.354009    36.098427          120    17210.475    19471.953    -35807.58    828.40803   -1198.3048   -587.37741    72.354008     62.66041    36.098427    291.61615   -312028.73 
   99600    218.97842    163665.77    72.354772    72.354772    36.098808          120    17788.462    19443.629     -35330.7    921.57071   -1287.8559   -964.18692    72.354772    62.661071    36.098808    633.79719   -312027.54 
   99610    217.67256    163671.35    72.355595    72.355595    36.099218          120     17858.96    19127.788   -35632.062    1205.7512   -1452.3038   -580.94273    72.355595    62.661784    36.099218    451.56169   -312025.47 
   99620    216.99477    163677.19    72.356456    72.356456    36.099648          120    17650.725    18804.059   -37065.439    940.15062   -923.72241   -667.68082    72.356456    62.662529    36.099648   -203.55155   -312024.45 
   99630    220.68288    163682.88    72.357294    72.357295    36.100066          120    17242.361    18531.437   -37668.023    404.88311   -1116.7345   -88.057655    72.357294    62.663255    36.100066   -631.40814   -312031.49 
   99640    218.02344    163688.11    72.358063    72.358064     36.10045          120    16944.724    17742.124   -38309.919    503.30583   -1292.6786    421.94985    72.358063    62.663922     36.10045   -1207.6901   -312026.21 
   99650    219.68799    163692.49     72.35871    72.358711    36.100773          120    16964.149    17447.094   -38177.516    562.34892    -1149.743    463.81183     72.35871    62.664482    36.100773   -1255.4246   -312029.33 
   99660    217.63378    163695.98    72.359223    72.359224    36.101029          120    16689.892    17276.919   -37712.079    603.68366   -1383.9897    3.1500602    72.359223    62.664926    36.101029   -1248.4229    -312024.9 
   99670    218.33271    163698.55    72.359602    72.359603    36.101218          120    16717.019    17456.013   -38160.853    586.66529   -1531.5697   -25.544894    72.359602    62.665254    36.101218   -1329.2737   -312026.27 
   99680    219.04423    163700.21    72.359847    72.359848     36.10134          120    17147.883    18209.878   -37509.586    710.53959   -1395.4809    -478.6845    72.359847    62.665466     36.10134   -717.27467   -312028.06 
   99690    219.74673    163701.38     72.36002     72.36002    36.101426          120    17720.394     19035.18   -36458.328    833.22879    -1903.011   -552.67808     72.36002    62.665616    36.101426    99.082141   -312029.38 
   99700    218.33228    163702.59    72.360197    72.360198    36.101514          120    17365.916    19286.518   -36027.856    783.75708   -1618.6274    37.893037    72.360197     62.66577    36.101514     208.1926   -312026.27 
   99710    219.75993    163703.87    72.360387    72.360387    36.101609          120    16529.251     18513.01   -36488.737    700.25621   -1357.8694   -601.74595    72.360387    62.665934    36.101609   -482.15869   -312028.84 
   99720    217.38164    163704.84    72.360529     72.36053     36.10168          120    16723.793    18270.435   -37371.568    743.99109   -1201.6763   -843.72563    72.360529    62.666057     36.10168   -792.44644   -312023.52 
   99730    220.40916    163705.29    72.360595    72.360596    36.101713          120    17110.201     18600.43   -37009.513    511.92162   -1147.7815   -520.72819    72.360595    62.666115    36.101713   -432.96065   -312028.85 
   99740    218.95496    163705.39    72.360611    72.360611    36.101721          120    17262.937     18835.72   -37229.443    865.75127   -1070.0347   -165.86049    72.360611    62.666128    36.101721   -376.92901   -312025.56 
   99750    218.98816    163705.22    72.360586    72.360586    36.101708          120    17139.734    19353.028   -37342.082    1296.5266   -1482.5482    20.530635    72.360586    62.666106    36.101708   -283.10672   -312025.98 
   99760    218.32898    163704.87    72.360533    72.360534    36.101682          120    17050.019    19836.747   -37083.807    1059.7361   -1383.8713   -51.858045    72.360533    62.666061    36.101682   -65.680362   -312024.23 
   99770    218.88866    163704.44    72.360471    72.360472    36.101651          120    16727.917    19485.351   -36949.506     760.6326   -1134.6223   -365.08452    72.360471    62.666007    36.101651   -245.41273   -312024.74 
   99780    220.38726    163703.83     72.36038    72.360381    36.101606          120    16756.593    19260.788    -37705.62    541.32709   -981.56539   -699.71461     72.36038    62.665928    36.101606   -562.74634   -312026.82 
   99790    217.20026    163702.87    72.360239     72.36024    36.101536          120    17673.563    19083.393   -37361.874    576.40285    -619.4608   -681.21009    72.360239    62.665806    36.101536   -201.63938   -312020.51 
   99800    221.12635    163701.74    72.360072    72.360072    36.101452          120    17847.941    19576.297   -37744.886    575.04122   -866.44218   -868.94004    72.360072    62.665661    36.101452    -106.8827   -312028.06 
   99810    220.51647    163700.56    72.359899      72.3599    36.101366          120    18059.449     20013.89   -37017.276    351.44406   -1409.4397   -780.16451    72.359899    62.665511    36.101366    352.02091   -312026.46 
   99820    218.11656     163699.6    72.359757    72.359758    36.101295          120    18062.083    19445.042   -37257.386    278.29633   -1317.0813   -907.97967    72.359757    62.665389    36.101295    83.246175   -312021.13 
   99830    220.56445    163698.71    72.359625    72.359626    36.101229          120    17579.798    19243.388   -37192.408    665.93237   -967.53148   -685.66902    72.359625    62.665274    36.101229   -123.07393   -312025.19 
   99840    220.58147    163697.74    72.359482    72.359483    36.101158          120    17653.685    19234.524    -36806.43     890.9413   -1592.7822   -546.44687    72.359482    62.665151    36.101158    27.259426   -312024.77 
   99850    221.48866    163696.81    72.359346    72.359347     36.10109          120     17854.53    19099.712   -35848.871    592.58902   -1734.3808   -208.41483    72.359346    62.665032     36.10109     368.4568   -312026.73 
   99860    221.30458    163696.13    72.359246    72.359247     36.10104          120    17578.743     19137.63   -35647.921    539.80366   -1136.6067   -36.641607    72.359246    62.664946     36.10104    356.15058    -312026.2 
   99870     219.4738    163695.68     72.35918     72.35918    36.101007          120    17920.783    18808.469   -36466.372     675.2351   -1184.1439    358.96906     72.35918    62.664888    36.101007    87.626824   -312021.96 
   99880    219.80801    163695.29    72.359123    72.359123    36.100978          120    17223.258    18907.639   -36863.887    910.23989   -1425.0072    506.49514    72.359123    62.664839    36.100978   -244.33008   -312022.54 
   99890    220.94411    163694.71    72.359036    72.359036    36.100935          120    16532.184    19082.728   -38515.838    1336.6204   -1146.5955   -237.04807    72.359036    62.664764    36.100935   -966.97568    -312024.9 
   99900    220.10425    163693.49    72.358857    72.358857    36.100846          120    16668.474    18917.062   -38356.549    1191.5664   -1086.5117   -308.38558    72.358857    62.664609    36.100846   -923.67094   -312023.35 
   99910    219.89841    163691.61     72.35858    72.358581    36.100708          120    17312.495    18678.419   -38340.726    1108.8821   -1178.7046   -782.37397     72.35858    62.664369    36.100708   -783.27091   -312022.69 
   99920    219.63826    163689.18    72.358222    72.358222    36.100529          120    17428.829    19047.941   -38040.141    451.87086   -1196.3041   -589.22254    72.358222    62.664059    36.100529   -521.12393   -312021.95 
   99930    220.72647    163686.39    72.357811    72.357812    36.100324          120    17025.315    19620.994   -37026.084    771.52759   -1134.2363   -864.35438    72.357811    62.663703    36.100324    -126.5916   -312023.79 
   99940    220.64033    163683.51    72.357387    72.357387    36.100112          120    17038.747    19456.364   -36051.051    653.59518   -1148.5814   -1267.3565    72.357387    62.663336    36.100112    148.01983   -312023.54 
   99950    219.45063    163680.76    72.356981    72.356981     36.09991          120    17607.964    19617.455   -35610.364    693.18584   -1297.5394   -1047.9571    72.356981    62.662984     36.09991    538.35165   -312021.22 
   99960    220.23267    163678.38    72.356631    72.356632    36.099735          120    18614.007     19221.05    -35604.76    749.98592   -1071.4601   -611.42844    72.356631    62.662681    36.099735    743.43219   -312022.48 
   99970    219.47218     163676.5    72.356353    72.356354    36.099597          120    18395.999    18565.493   -36554.046    764.63215   -1213.8534   -275.29891    72.356353     62.66244    36.099597    135.81538   -312020.58 
   99980    221.37596     163674.7    72.356089    72.356089    36.099465          120    17903.384    17955.939   -37471.634    363.59344   -1593.8041    43.469938    72.356089    62.662212    36.099465   -537.43733   -312024.77 
   99990     221.3712    163672.53    72.355768    72.355769    36.099305          120    16756.869    18063.666   -37657.784    625.22578   -1749.0179    401.05393    72.355768    62.661934    36.099305   -945.74982   -312024.63 
  100000    221.62283    163669.76    72.355361    72.355361    36.099102          120    17524.386    18285.139   -37317.249    741.77708   -628.25607    549.21581    72.355361    62.661581    36.099102   -502.57463   -312024.76 
Loop time of 29421.3 on 1 procs for 100000 steps with 14848 atoms

Performance: 0.294 ns/day, 81.726 hours/ns, 3.399 timesteps/s
100.0% CPU use with 1 MPI tasks x no OpenMP threads

MPI task timing breakdown:
Section |  min time  |  avg time  |  max time  |%varavg| %total
---------------------------------------------------------------
Pair    | 24516      | 24516      | 24516      |   0.0 | 83.33
Bond    | 0.023319   | 0.023319   | 0.023319   |   0.0 |  0.00
Kspace  | 1122.4     | 1122.4     | 1122.4     |   0.0 |  3.81
Neigh   | 3096.2     | 3096.2     | 3096.2     |   0.0 | 10.52
Comm    | 41.323     | 41.323     | 41.323     |   0.0 |  0.14
Output  | 1.0711     | 1.0711     | 1.0711     |   0.0 |  0.00
Modify  | 633.15     | 633.15     | 633.15     |   0.0 |  2.15
Other   |            | 11.05      |            |       |  0.04

Nlocal:    14848 ave 14848 max 14848 min
Histogram: 1 0 0 0 0 0 0 0 0 0
Nghost:    46754 ave 46754 max 46754 min
Histogram: 1 0 0 0 0 0 0 0 0 0
Neighs:    1.00549e+07 ave 1.00549e+07 max 1.00549e+07 min
Histogram: 1 0 0 0 0 0 0 0 0 0

Total # of neighbors = 10054861
Ave neighs/atom = 677.186
Ave special neighs/atom = 0
Neighbor list builds = 11062
Dangerous builds = 0
 
All done!
Total wall time: 8:15:25
