LAMMPS (16 Mar 2018)
Reading data file ...
  triclinic box = (0 0 0) to (9.208 7.97436 18.376) with tilt (-4.604 0 0)
  1 by 1 by 1 MPI processor grid
  reading atoms ...
  116 atoms
Finding 1-2 1-3 1-4 neighbors ...
  special bond factors lj:   0          0          0         
  special bond factors coul: 0          0          0         
  0 = max # of 1-2 neighbors
  0 = max # of 1-3 neighbors
  0 = max # of 1-4 neighbors
  1 = max # of special neighbors
Replicating atoms ...
  triclinic box = (0 0 0) to (73.664 63.7949 36.752) with tilt (-36.832 0 0)
  1 by 1 by 1 MPI processor grid
  14848 atoms
Finding 1-2 1-3 1-4 neighbors ...
  special bond factors lj:   0          0          0         
  special bond factors coul: 0          0          0         
  0 = max # of 1-2 neighbors
  0 = max # of 1-3 neighbors
  0 = max # of 1-4 neighbors
  1 = max # of special neighbors
  Time spent = 0.00377703 secs
PPPM initialization ...
WARNING: System is not charge neutral, net charge = -0.2048 (../kspace.cpp:302)
  using 12-bit tables for long-range coulomb (../kspace.cpp:321)
  G vector (1/distance) = 0.201681
  grid = 36 50 24
  stencil order = 5
  estimated absolute RMS force accuracy = 0.00105653
  estimated relative force accuracy = 7.33721e-05
  using double precision FFTs
  3d grid and FFT values/proc = 65395 43200
Neighbor list info ...
  update every 1 steps, delay 0 steps, check yes
  max neighbors/atom: 2000, page size: 100000
  master list distance cutoff = 15.3
  ghost atom cutoff = 15.3
  binsize = 7.65, bins = 15 9 5
  3 neighbor lists, perpetual/occasional/extra = 3 0 0
  (1) pair morse, perpetual
      attributes: half, newton on
      pair build: half/bin/newton/tri
      stencil: half/bin/3d/newton/tri
      bin: standard
  (2) pair buck, perpetual, copy from (1)
      attributes: half, newton on
      pair build: copy
      stencil: none
      bin: none
  (3) pair lj/cut/coul/long, perpetual, copy from (1)
      attributes: half, newton on
      pair build: copy
      stencil: none
      bin: none
Setting up Verlet run ...
  Unit style    : metal
  Current step  : 0
  Time step     : 0.001
Per MPI rank memory allocation (min/avg/max) = 145.7 | 145.7 | 145.7 Mbytes
Step Temp Volume Cella Cellb Cellc CellGamma Pxx Pyy Pzz Pxy Pxz Pyz Lx Ly Lz Press PotEng 
       0           25    172711.88       73.664    73.664001       36.752          120   -211230.69   -211227.66   -282217.28    3.2680879  -0.63989637   0.84867825       73.664    63.794896       36.752   -234891.87   -309191.56 
      10     226.9931    171905.65    73.549199    73.549199    36.694724          120    -210394.9   -210439.76   -258039.86    41.779548    2.0129869   -54.396246    73.549199    63.695475    36.694724   -226291.51   -309737.32 
      20    448.38723    169925.69    73.265735    73.265735      36.5533          120   -198832.91   -198672.16   -183741.97    11.576146   -71.611578   -116.83437    73.265735    63.449988      36.5533   -193749.01   -310468.76 
      30    338.34797    168083.16    72.999961    72.999961    36.420701          120   -176750.16   -176466.03   -89921.163   -100.62687   -267.21837   -140.46842    72.999961    63.219821    36.420701   -147712.45   -310547.69 
      40     87.44666    166614.18    72.786676    72.786676    36.314291          120   -152375.02   -152120.05    -13456.84   -227.46685   -552.87932   -174.25755    72.786676    63.035111    36.314291   -105983.97   -310219.12 
      50    139.43781    165322.99    72.598165    72.598165     36.22024          120   -127331.55   -127091.18    14417.999   -280.11276   -786.66264   -294.38415    72.598165    62.871855     36.22024   -80001.578   -310394.63 
      60    421.61363    164232.41    72.438178    72.438178     36.14042          120   -100218.81   -99905.686   -24340.394   -399.48961   -1367.6422   -352.92222    72.438178    62.733303     36.14042   -74821.631   -311030.86 
      70    543.54968    163298.38    72.300592    72.300593    36.071777          120   -67072.482    -66677.42   -85564.075   -419.83183   -2099.8457   -189.18918    72.300592     62.61415    36.071777   -73104.659   -311419.99 
      80    400.54099    162466.34    72.177587    72.177588    36.010408          120   -30285.254    -29962.58   -113541.41   -550.03599   -2509.0102    24.623904    72.177587    62.507625    36.010408   -57929.747   -311291.64 
      90    239.59334    161750.14    72.071371    72.071372    35.957415          120   -1048.7456   -888.70727   -104387.88    -888.2726    -2949.526    209.57282    72.071371    62.415639    35.957415   -35441.777   -311065.25 
     100    349.33364    161190.31    71.988126    71.988127    35.915883          120    26362.247    26756.075   -67015.125   -1235.5645   -3319.5185     386.8672    71.988126    62.343547    35.915883   -4632.2678   -311340.34 
     110    433.93098    160844.99    71.936683    71.936684    35.890217          120    44995.896     46141.48   -15100.995   -1238.6562   -3310.6699    427.27708    71.936683    62.298996    35.890217     25345.46   -311597.98 
     120     336.0178       160750    71.922519    71.922519    35.883151          120    42794.517    44521.991    25114.502   -1128.3744   -3708.3235    307.24489    71.922519    62.286729    35.883151    37477.003   -311505.01 
     130    241.54483    160867.45     71.94003    71.940031    35.891887          120    27951.772     29915.77    39645.277    -1092.469   -4255.9148    138.34201     71.94003    62.301894    35.891887    32504.273   -311390.91 
     140    264.66335    161107.67    71.975823    71.975823    35.909745          120    16265.216    17918.875    24209.199   -1207.0755   -4444.6977   -80.170891    71.975823    62.332892    35.909745     19464.43   -311492.54 
     150    320.10074    161369.51    72.014794    72.014795    35.929188          120    8108.4361    9375.7235   -16353.577   -1153.5464   -4587.9644    135.60519    72.014794    62.366642    35.929188     376.8608   -311670.27 
     160    306.31458    161555.17    72.042401    72.042402    35.942962          120     1871.562     3993.203   -52878.614   -1202.5246   -4583.9831    455.59821    72.042401     62.39055    35.942962   -15671.283   -311721.77 
     170    238.76253    161610.33    72.050599      72.0506    35.947052          120    2938.1191    6140.1612   -69925.948   -1522.7501   -4075.4963    540.53918    72.050599     62.39765    35.947052   -20282.556   -311656.32 
     180    208.88293     161548.8    72.041455    72.041455     35.94249          120    11390.534    14840.661   -68505.018    -1670.643   -3253.3531     299.2941    72.041455    62.389731     35.94249   -14091.274   -311648.77 
     190    231.59561    161432.09    72.024101    72.024102    35.933832          120     19250.46    22538.603   -49730.915   -1419.3813   -2590.8167   -162.51648    72.024101    62.374702    35.933832    -2647.284   -311742.62 
     200    238.33379    161331.68    72.009166    72.009167     35.92638          120    21776.998    24954.698   -21454.713   -1222.5628   -2074.0412   -862.76038    72.009166    62.361768     35.92638    8425.6611   -311812.22 
     210    202.28334     161299.5    72.004377    72.004378    35.923991          120    21253.752    24349.327   -744.70221   -712.75041   -2082.3678   -1094.9982    72.004377     62.35762    35.923991    14952.792   -311794.79 
     220    177.05529    161352.64    72.012284    72.012284    35.927936          120    19589.395    22862.435    3620.7712   -325.17879   -2720.3222   -956.65732    72.012284    62.364468    35.927936    15357.534    -311787.7 
     230    181.42813    161473.65    72.030282    72.030283    35.936915          120    17219.595    20215.671   -7917.5718    -329.1149    -3419.996   -949.24386    72.030282    62.380055    35.936915    9839.2317   -311835.06 
     240    189.22604    161618.45    72.051806    72.051807    35.947654          120    12944.791    15566.745   -27629.225   -574.77756   -4007.5985   -750.09482    72.051806    62.398695    35.947654    294.10379   -311890.25 
     250    175.07777    161733.35    72.068877    72.068878    35.956171          120    10147.045    12150.172   -45150.333   -630.47832   -4264.0844    -825.4455    72.068877    62.413479    35.956171   -7617.7053    -311902.4 
     260     151.9292    161783.76    72.076363    72.076364    35.959906          120    10764.751    12122.447   -55841.103   -574.19577   -4145.2607   -782.27409    72.076363    62.419962    35.959906   -10984.635   -311892.87 
     270    143.33355    161765.91    72.073713    72.073714    35.958584          120    12868.921    14245.633   -54380.379   -427.22304   -3826.8474   -648.71238    72.073713    62.417667    35.958584   -9088.6082   -311906.34 
     280    148.17766    161704.23    72.064551    72.064552    35.954013          120    15758.314    17694.491   -42175.217   -72.723378   -3444.5937   -413.26819    72.064551    62.409733    35.954013   -2907.4707   -311945.04 
     290    145.81039    161639.98    72.055006    72.055006     35.94925          120    18843.427    21402.008   -27265.632    59.787651   -3083.5916   -440.92737    72.055006    62.401466     35.94925    4326.6011   -311971.15 
     300    133.48667    161611.32    72.050746    72.050747    35.947125          120    20478.713    23061.815   -17151.922    20.799075    -3058.485   -704.43567    72.050746    62.397777    35.947125    8796.2018   -311976.17 
     310    123.12771    161634.59    72.054205    72.054205    35.948851          120    19260.372    21140.499     -14943.9   -279.71309   -3293.1284   -1243.7641    72.054205    62.400772    35.948851    8485.6569   -311981.72 
     320    121.47036    161698.32    72.063673    72.063673    35.953574          120    15714.991    17244.125    -20695.75    -713.3153   -3698.1181   -1223.5387    72.063673    62.408972    35.953574    4087.7886    -312002.4 
     330    121.25944    161772.19    72.074646    72.074646    35.959049          120    12719.597    14580.761    -31096.27   -949.00607   -4190.3706   -1273.9265    72.074646    62.418475    35.959049   -1265.3037   -312025.37 
     340    113.86267    161826.31    72.082683    72.082683    35.963059          120    12132.129    14564.327   -40616.182     -704.641    -4272.081   -1243.2974    72.082683    62.425435    35.963059   -4639.9087   -312033.79 
     350    104.55784    161846.14    72.085626    72.085627    35.964527          120    13012.299    16029.931   -44538.629   -793.09443   -3975.1116   -1242.7532    72.085626    62.427984    35.964527   -5165.4663   -312035.79 
     360    99.743716    161834.97    72.083968    72.083969      35.9637          120    14430.597    17792.632   -41339.643   -811.21163   -3500.9339   -1192.6305    72.083968    62.426548      35.9637   -3038.8048   -312044.53 
     370    99.350847    161809.66    72.080209     72.08021    35.961825          120    16590.443    19286.529   -34198.133   -811.75002   -3534.4819   -987.60007    72.080209    62.423293    35.961825    559.61305   -312061.19 
     380    96.452329    161791.84    72.077564    72.077565    35.960505          120    18019.958    19853.531   -26561.834   -723.22916    -3477.754   -867.19256    72.077564    62.421002    35.960505    3770.5517   -312073.16 
     390    89.998151    161797.31    72.078376    72.078376     35.96091          120    17512.988    19132.441   -21842.178   -691.12946   -3389.4673   -757.44913    72.078376    62.421705     35.96091    4934.4171   -312077.81 
     400     85.47397     161828.6    72.083022    72.083022    35.963228          120    16145.898    17825.337   -22187.138   -859.54505   -3656.9558   -927.23793    72.083022    62.425729    35.963228    3928.0324   -312083.92 
     410    84.653302    161876.26    72.090098    72.090099    35.966758          120    14963.144    16693.695   -26628.695   -854.60456   -3591.0951   -1033.8708    72.090098    62.431857    35.966758     1676.048   -312096.36 
     420    82.936252    161925.56    72.097415    72.097416    35.970409          120    14152.139    16166.758   -32708.098   -971.47008   -3479.1019   -1015.8563    72.097415    62.438194    35.970409    -796.4003   -312106.81 
     430     78.40329    161962.63    72.102918    72.102918    35.973154          120    13363.019    15587.697   -37730.415     -1019.34    -3500.118   -783.42645    72.102918    62.442959    35.973154   -2926.5665   -312111.36 
     440    73.851948    161977.91    72.105184    72.105184    35.974285          120    13181.343    15215.878   -39719.672   -1016.8084    -3527.674   -625.74971    72.105184    62.444922    35.974285   -3774.1503   -312114.88 
     450    71.929115    161970.43    72.104075    72.104075    35.973731          120    14152.072     15958.58   -38172.065   -1010.8243   -3435.8245   -851.59156    72.104075    62.443961    35.973731   -2687.1377   -312122.76 
     460    70.790966    161949.47    72.100964    72.100964    35.972179          120    15357.459    17261.951    -34140.97   -811.30318   -3236.3511   -1112.2828    72.100964    62.441267    35.972179   -507.18698   -312131.78 
     470    68.574339    161928.91    72.097913    72.097913    35.970657          120    16138.917    18396.818   -29376.871    -617.8301   -3172.7739    -1231.188    72.097913    62.438625    35.970657    1719.6214   -312138.26 
     480    64.373952     161920.8    72.096709    72.096709    35.970056          120    16276.936    19172.192   -26452.994   -523.45509   -3185.6916   -1244.5179    72.096709    62.437582    35.970056    2998.7115   -312140.57 
     490    61.720014    161930.19    72.098103    72.098104    35.970752          120    15913.903    19037.173   -26635.173   -538.18923   -3441.3792   -929.00826    72.098103    62.438789    35.970752    2771.9677   -312145.05 
     500    61.065631    161953.37    72.101543    72.101544    35.972468          120    15052.177    18182.426   -29337.155   -504.23637   -3886.6064   -524.63755    72.101543    62.441769    35.972468    1299.1492   -312152.38 
     510    59.641633    161980.34    72.105544    72.105545    35.974465          120    13963.141    17285.782   -33041.218   -430.94962    -4041.411   -274.39765    72.105544    62.445234    35.974465   -597.43191   -312158.08 
     520     56.76852    162000.41    72.108523    72.108524    35.975951          120    13734.915    16971.015   -35893.318   -402.88998    -3993.017   -210.45719    72.108523    62.447814    35.975951   -1729.1291   -312160.47 
     530    54.641803    162008.28    72.109691    72.109691    35.976533          120    14245.324    17199.705   -36905.506   -294.37363    -3696.359   -403.24019    72.109691    62.448825    35.976533   -1820.1589   -312163.83 
     540     53.40844    162005.17     72.10923     72.10923    35.976303          120    14941.699    17634.935   -35402.328   -198.27912   -3247.3389   -697.68401     72.10923    62.448425    35.976303   -941.89794   -312168.66 
     550    52.649012    161997.34    72.108068    72.108068    35.975724          120    15663.449    18001.743   -32642.093   -197.08144   -2990.5994   -787.54847    72.108068    62.447419    35.975724    341.03297   -312174.37 
     560    50.916989    161992.57    72.107359     72.10736     35.97537          120    16328.787    18302.859   -29952.821   -311.18254    -2994.495   -734.49226    72.107359    62.446805     35.97537    1559.6083      -312178 
     570    48.353345    161997.09     72.10803     72.10803    35.975705          120     16475.04    18262.917   -28449.433   -387.81845   -3248.0108   -920.88644     72.10803    62.447386    35.975705    2096.1745   -312179.34 
     580    47.016184    162012.55    72.110325    72.110325     35.97685          120    16151.631    17869.432   -28954.033   -504.90332   -3436.5381   -965.16536    72.110325    62.449374     35.97685    1689.0101   -312182.73 
     590    46.505927    162035.51     72.11373    72.113731    35.978549          120     15848.22    17638.115   -30716.653   -640.26285   -3717.4419   -869.90055     72.11373    62.452323    35.978549    923.22755   -312187.26 
     600    45.697613    162060.74    72.117473    72.117474    35.980416          120    15590.856    17497.494   -32763.612   -579.88231   -4065.0545   -561.03017    72.117473    62.455565    35.980416    108.24583   -312191.39 
     610    44.184965    162083.34    72.120825    72.120825    35.982088          120     15100.87    17382.836   -34465.513   -459.23776   -4179.1668   -346.93487    72.120825    62.458467    35.982088   -660.60232   -312193.45 
     620    42.833244    162099.43    72.123211    72.123212    35.983279          120    14884.433    17117.462   -35093.848   -542.05231   -4050.4861   -427.20621    72.123211    62.460534    35.983279   -1030.6512   -312195.94 
     630    41.896871    162107.85    72.124461    72.124462    35.983902          120    15011.858    17046.742   -34450.181    -627.5581   -3741.0052   -735.68985    72.124461    62.461616    35.983902   -797.19368   -312199.37 
     640    41.317245    162110.97    72.124923    72.124924    35.984133          120    15288.091    17446.144   -32738.108     -636.603   -3434.5393   -1062.8443    72.124923    62.462016    35.984133   -1.2907011   -312202.77 
     650    40.377922    162113.76    72.125337    72.125338     35.98434          120    15516.246     17849.64    -30899.05   -431.06059   -3354.4982   -1322.3115    72.125337    62.462375     35.98434    822.27873   -312205.36 
     660    39.176116    162120.74    72.126372    72.126373    35.984856          120    15404.818    18151.128   -30118.274   -215.80328   -3507.6233    -1343.967    72.126372    62.463271    35.984856    1145.8907   -312207.38 
     670    38.366917    162133.23    72.128223    72.128224     35.98578          120    15125.694    18195.695    -30617.25   -176.26641   -3558.0093   -1197.7497    72.128223    62.464874     35.98578    901.37963   -312209.95 
     680    38.069012    162149.17    72.130588    72.130588    35.986959          120    14774.976    17860.844    -31897.54    -251.4536    -3712.296   -1172.7286    72.130588    62.466922    35.986959    246.09357   -312213.43 
     690     37.26117    162164.58    72.132872    72.132873    35.988099          120    14582.843    17368.783   -33420.678   -488.53118   -3711.0943   -1144.8378    72.132872      62.4689    35.988099   -489.68401   -312215.58 
     700    36.138386     162175.3    72.134462    72.134462    35.988892          120    14467.099    16934.597    -34847.86   -537.23059   -3663.1492    -1253.214    72.134462    62.470277    35.988892   -1148.7212   -312217.12 
     710    35.276997    162178.39    72.134921    72.134922    35.989121          120    14620.641    16830.273   -35104.164    -540.4224   -3837.4951   -1180.0943    72.134921    62.470675    35.989121     -1217.75      -312219 
     720    34.780935    162174.34    72.134319     72.13432    35.988821          120    14939.109    17010.176   -34249.992   -447.27524   -3930.9723   -950.48722    72.134319    62.470154    35.988821   -766.90211   -312221.62 
     730    34.099935     162166.4    72.133143    72.133144    35.988234          120     15267.16    17287.688   -33061.681    -198.5894   -4025.3001   -845.94111    72.133143    62.469135    35.988234   -168.94454   -312223.57 
     740    33.387524     162158.4    72.131957    72.131957    35.987642          120    15659.868    17495.573   -32087.315   -188.63115   -3983.7229   -899.78868    72.131957    62.468108    35.987642     356.0418   -312225.45 
     750    32.626981    162153.29    72.131199      72.1312    35.987264          120     16004.85    17640.258   -31663.181   -374.63172   -3813.2736   -1060.6627    72.131199    62.467452    35.987264     660.6422      -312227 
     760    32.261849    162152.39    72.131065    72.131065    35.987197          120    16027.088    17485.867   -31891.556   -452.51764   -3628.3813   -1150.2999    72.131065    62.467335    35.987197    540.46618   -312229.34 
     770    31.846269    162154.44    72.131369    72.131369    35.987349          120    15521.108    17285.196   -32944.291   -432.69994   -3665.9635   -1279.0224    72.131369    62.467598    35.987349   -45.995882   -312231.37 
     780    31.153367    162156.01    72.131602    72.131603    35.987465          120    15189.206    17316.231   -34158.285   -343.29742   -3644.8263   -1352.2174    72.131602      62.4678    35.987465   -550.94932   -312232.87 
     790    30.511269    162154.31     72.13135    72.131351     35.98734          120    14902.985    17644.777   -34945.073   -196.00299   -3606.0452   -1450.2603     72.13135    62.467583     35.98734   -799.10381   -312234.12 
     800    30.186101     162148.3    72.130459    72.130459    35.986895          120    14717.519    17916.301   -34778.417    -98.87179   -3681.0499   -1486.2227    72.130459     62.46681    35.986895   -714.86554   -312235.98 
     810    29.977132       162139     72.12908     72.12908    35.986207          120    14859.114    18252.214   -33750.893     -66.8616    -3848.443   -1323.1223     72.12908    62.465616    35.986207    -213.1884   -312238.04 
     820    29.635371    162129.59    72.127684    72.127685    35.985511          120    15195.576    18762.892   -32566.945    2.9009185   -4012.9353    -1301.736    72.127684    62.464407    35.985511    463.84117   -312239.79 
     830    29.003252    162123.81    72.126828    72.126828    35.985083          120    15471.622    19084.921   -31747.841   -156.93347   -4094.8066   -1254.5033    72.126828    62.463666    35.985083    936.23388   -312240.71 
     840    28.694286    162123.96     72.12685     72.12685    35.985094          120    15573.843    19175.225    -31369.88   -329.04444   -4232.8368   -1183.3023     72.12685    62.463685    35.985094    1126.3961   -312242.71 
     850     28.60799    162130.56    72.127828    72.127828    35.985582          120    15717.298    19160.099   -31545.405    -346.4474   -4081.1189   -1216.5604    72.127828    62.464532    35.985582    1110.6643   -312244.44 
     860    28.262495    162142.77    72.129639     72.12964    35.986486          120    15808.088    19010.314   -32354.157   -286.94927   -4017.7446   -1300.2502    72.129639    62.466101    35.986486    821.41493   -312245.84 
     870    27.692809    162158.41    72.131958    72.131958    35.987643          120    15861.873    18596.316   -33291.573   -202.29866   -4121.7826   -1319.1793    72.131958    62.468108    35.987643    388.87183   -312246.59 
     880    27.572707     162174.7    72.134374    72.134374    35.988848          120    15671.808    18278.011    -33846.79   -241.29348   -4155.3829   -1452.2616    72.134374    62.470201    35.988848    34.342688   -312248.03 
     890    27.550869    162189.59     72.13658    72.136581    35.989949          120      15384.6    18083.411   -33928.973   -277.45452   -4185.3291   -1592.8233     72.13658    62.472112    35.989949   -153.65389   -312249.67 
     900    27.299145    162202.12    72.138438    72.138439    35.990876          120    15259.506    18028.863   -33726.931   -269.44704   -4296.0045   -1647.4674    72.138438    62.473721    35.990876   -146.18757   -312250.99 
     910    26.664712    162212.64    72.139998    72.139999    35.991654          120    15257.803    18152.197   -33101.944   -276.89603   -4514.4526    -1638.446    72.139998    62.475072    35.991654    102.68522   -312251.42 
     920    26.538551     162222.7     72.14149     72.14149    35.992398          120     15316.33    18182.427   -32418.552   -337.49244   -4641.3349   -1549.4251     72.14149    62.476363    35.992398    360.06824   -312252.34 
     930    26.191681    162233.72    72.143123    72.143123    35.993213          120    15369.561    17956.256   -32232.488   -406.40214   -4635.0774   -1519.4506    72.143123    62.477778    35.993213    364.44316   -312253.12 
     940    25.625309    162245.64     72.14489     72.14489    35.994095          120    15284.036    17737.634   -32628.478   -441.52389    -4448.723   -1446.7235     72.14489    62.479308    35.994095    131.06383   -312253.31 
     950     25.15248    162257.03    72.146577    72.146578    35.994937          120    15154.604    17499.246   -33479.382   -512.64807   -4254.0066   -1355.0064    72.146577    62.480769    35.994937   -275.17759    -312253.8 
     960    24.833694    162265.62    72.147851    72.147851    35.995572          120    14770.917    17231.989   -34189.595   -564.20992   -4171.2197   -1349.8217    72.147851    62.481872    35.995572    -728.8964   -312254.56 
     970    24.865682    162269.15    72.148375    72.148375    35.995833          120    14329.236    17201.237   -34536.851   -597.95535   -4230.8748   -1366.3936    72.148375    62.482326    35.995833   -1002.1257   -312255.73 
     980    24.805463    162266.63       72.148    72.148001    35.995646          120    14218.766    17417.731   -34451.458   -555.07009   -4427.3003   -1556.7567       72.148    62.482002    35.995646   -938.32041      -312257 
     990     24.66797    162258.99    72.146868    72.146868    35.995081          120    14459.335    17672.789   -33963.079   -449.36937   -4626.4788   -1746.9691    72.146868    62.481021    35.995081    -610.3181   -312257.95 
    1000    24.375987    162248.61     72.14533     72.14533    35.994314          120     14876.75    17927.963   -33134.967   -281.04346   -4757.3074   -1845.8555     72.14533    62.479689    35.994314   -110.08457   -312258.69 
Loop time of 389.162 on 1 procs for 1000 steps with 14848 atoms

Performance: 0.222 ns/day, 108.101 hours/ns, 2.570 timesteps/s
99.8% CPU use with 1 MPI tasks x no OpenMP threads

MPI task timing breakdown:
Section |  min time  |  avg time  |  max time  |%varavg| %total
---------------------------------------------------------------
Pair    | 324.63     | 324.63     | 324.63     |   0.0 | 83.42
Bond    | 0.00050378 | 0.00050378 | 0.00050378 |   0.0 |  0.00
Kspace  | 14.725     | 14.725     | 14.725     |   0.0 |  3.78
Neigh   | 40.692     | 40.692     | 40.692     |   0.0 | 10.46
Comm    | 0.48052    | 0.48052    | 0.48052    |   0.0 |  0.12
Output  | 0.013835   | 0.013835   | 0.013835   |   0.0 |  0.00
Modify  | 8.455      | 8.455      | 8.455      |   0.0 |  2.17
Other   |            | 0.1704     |            |       |  0.04

Nlocal:    14848 ave 14848 max 14848 min
Histogram: 1 0 0 0 0 0 0 0 0 0
Nghost:    46909 ave 46909 max 46909 min
Histogram: 1 0 0 0 0 0 0 0 0 0
Neighs:    1.01431e+07 ave 1.01431e+07 max 1.01431e+07 min
Histogram: 1 0 0 0 0 0 0 0 0 0

Total # of neighbors = 10143089
Ave neighs/atom = 683.128
Ave special neighs/atom = 0
Neighbor list builds = 118
Dangerous builds = 0
PPPM initialization ...
  using 12-bit tables for long-range coulomb (../kspace.cpp:321)
  G vector (1/distance) = 0.202702
  grid = 36 48 24
  stencil order = 5
  estimated absolute RMS force accuracy = 0.000991617
  estimated relative force accuracy = 6.8864e-05
  using double precision FFTs
  3d grid and FFT values/proc = 63017 41472
Setting up Verlet run ...
  Unit style    : metal
  Current step  : 0
  Time step     : 0.001
Per MPI rank memory allocation (min/avg/max) = 153.5 | 153.5 | 153.5 Mbytes
Step Temp Volume Cella Cellb Cellc CellGamma Pxx Pyy Pzz Pxy Pxz Pyz Lx Ly Lz Press PotEng 
       0    24.375987    162248.61     72.14533     72.14533    35.994314          120    14892.292    17943.141    -33124.83   -280.92573   -4756.9712   -1846.1742     72.14533    62.479689    35.994314   -96.465495   -312258.48 
      10    24.314968     162238.6    72.143846    72.143847    35.993574          120    15206.467    18199.199   -32477.102   -231.12928   -4760.9648   -1949.2409    72.143846    62.478404    35.993574    309.52121   -312259.47 
      20    24.197628    162231.25    72.142757    72.142757     35.99303          120    15425.289     18468.76   -32447.196   -315.01571   -4670.2819   -2028.7961    72.142757    62.477461     35.99303    482.28406   -312259.86 
      30    24.196745    162227.38    72.142183    72.142183    35.992744          120    15648.508    18587.313   -32600.538    -357.3717   -4500.7568   -1879.3682    72.142183    62.476963    35.992744    545.09423   -312260.78 
      40    23.915793    162226.97    72.142122    72.142123    35.992714          120    15713.933    18446.102   -32836.283   -378.18427   -4292.5615   -1785.0495    72.142122    62.476911    35.992714    441.25067    -312260.7 
      50    23.783689    162229.14    72.142444    72.142444    35.992874          120    15691.309    18225.905   -33092.019   -297.59898     -4155.49   -1710.7268    72.142444     62.47719    35.992874    275.06514   -312261.29 
      60    23.581948    162232.73    72.142976    72.142977     35.99314          120    15734.582    18114.036   -33357.587   -103.65166    -4210.324   -1680.4941    72.142976    62.477651     35.99314    163.67692   -312261.54 
      70    23.224354    162236.98    72.143606    72.143606    35.993454          120    15783.169    18105.897   -33426.851    3.3080225   -4442.3596   -1797.1973    72.143606    62.478196    35.993454    154.07153   -312261.58 
      80    23.277807    162241.77    72.144316    72.144316    35.993808          120    15665.563    18139.888   -33111.126   -119.67519   -4525.3476   -2046.5774    72.144316    62.478811    35.993808    231.44154   -312262.23 
      90    23.449781    162247.44    72.145157    72.145157    35.994228          120    15583.459    18033.378    -32812.55   -278.45523   -4564.2043   -2339.8035    72.145157    62.479539    35.994228    268.09583   -312262.81 
     100    23.433564    162254.18    72.146155    72.146156    35.994726          120    15592.301    18052.365   -32689.266   -381.49771   -4497.0858   -2393.5552    72.146155    62.480404    35.994726    318.46649   -312263.35 
     110    23.273212    162262.11    72.147331    72.147331    35.995312          120    15535.614    18106.575   -32777.904   -425.45169   -4321.3936   -2477.6003    72.147331    62.481422    35.995312    288.09492   -312263.57 
     120    23.241303     162270.9    72.148634    72.148634    35.995963          120    15277.365    18009.472   -32960.657   -330.05948   -4168.4836   -2398.6085    72.148634     62.48255    35.995963    108.72677   -312263.86 
     130    23.061502    162279.55    72.149916    72.149916    35.996602          120    15050.782     17974.71   -33101.995    -284.0571   -4091.9835   -2200.4916    72.149916    62.483661    35.996602   -25.501232   -312263.58 
     140    22.855988    162287.23    72.151054    72.151054     35.99717          120    14860.227    18043.062   -33445.491   -279.35647   -4108.4237   -2125.3221    72.151054    62.484646     35.99717   -180.73382   -312263.52 
     150    22.704101    162293.19    72.151936    72.151937     35.99761          120    14794.484    18168.893   -33695.013   -304.91934   -4220.7652   -1908.1167    72.151936    62.485411     35.99761   -243.87864   -312263.16 
     160    22.853356    162297.24    72.152537    72.152537     35.99791          120    14845.866    18209.495   -33542.981   -410.12051   -4280.3604   -1812.9531    72.152537     62.48593     35.99791   -162.53984   -312263.43 
     170    22.857627    162299.99    72.152945    72.152945    35.998113          120    14898.368    18195.148   -33173.079   -478.67049   -4373.5758   -1880.7338    72.152945    62.486284    35.998113   -26.521113   -312263.42 
     180    22.941575    162302.36    72.153296    72.153297    35.998289          120    15147.669    18123.346   -32911.498   -430.94558   -4567.0162   -1979.2675    72.153296    62.486588    35.998289    119.83911   -312263.33 
     190    23.083707    162305.17    72.153712    72.153713    35.998496          120    15179.382    18060.696   -32762.932   -312.07237    -4505.506   -2176.3855    72.153712    62.486948    35.998496    159.04832   -312263.12 
     200    23.276442    162308.58    72.154218    72.154218    35.998749          120    15043.354    17997.977   -32828.608   -268.22309   -4364.9944   -2284.2507    72.154218    62.487386    35.998749    70.907907   -312263.25 
     210    23.312626    162312.12    72.154742    72.154742     35.99901          120    15014.714    18015.117   -33063.533   -275.85083    -4237.604   -2260.3164    72.154742     62.48784     35.99901   -11.234212   -312262.87 
     220    23.342187    162315.26    72.155207    72.155207    35.999242          120    15145.152    17938.412   -33439.861   -269.90837   -4147.7091   -2224.6216    72.155207    62.488243    35.999242   -118.76564   -312262.31 
     230    23.736205    162317.38    72.155522    72.155522    35.999399          120    15155.134    17794.648   -33696.014   -213.80386   -4131.7514   -2183.2067    72.155522    62.488515    35.999399   -248.74393   -312262.74 
     240    23.890121    162317.87    72.155594    72.155595    35.999435          120    14990.362    17797.895   -33715.792   -239.46832    -3923.562   -2086.4448    72.155594    62.488578    35.999435   -309.17822   -312262.85 
     250    24.290387    162316.58    72.155402    72.155403    35.999339          120    14959.965    17938.316    -33531.32   -239.63972    -3826.608   -2050.5587    72.155402    62.488412    35.999339   -211.01327   -312262.93 
     260    24.206327    162314.18    72.155048    72.155048    35.999163          120    15136.608    18110.824   -33372.331   -191.42659    -3917.217    -2168.448    72.155048    62.488105    35.999163   -41.632978   -312262.11 
     270    24.281003    162311.73    72.154684    72.154685    35.998981          120     15263.44    18244.915   -33228.484   -214.41681   -3912.2311   -2220.7746    72.154684     62.48779    35.998981    93.290475   -312261.82 
     280    24.486281    162310.03    72.154432    72.154432    35.998855          120    15269.642    18363.144   -33112.036   -266.78543   -3974.3917   -2188.9287    72.154432    62.487571    35.998855     173.5836   -312261.56 
     290    24.623019    162309.42    72.154342    72.154343    35.998811          120    15210.355    18425.012    -33223.13   -319.81591   -4072.1009   -2204.4128    72.154342    62.487494    35.998811    137.41261   -312261.11 
     300    24.798535    162309.65    72.154376    72.154377    35.998827          120    15081.305    18368.549   -33329.948   -263.14182   -4159.4012   -2300.3415    72.154376    62.487523    35.998827    39.968515   -312260.99 
     310    25.331147    162310.03    72.154432    72.154433    35.998855          120    15126.769    18144.065   -33719.617   -131.01891   -4107.7921   -2311.9489    72.154432    62.487572    35.998855    -149.5942   -312261.29 
     320     25.52602    162309.56    72.154363    72.154364    35.998821          120    15301.032    18027.507    -33940.21   -12.242799   -4076.9923   -2261.0373    72.154363    62.487512    35.998821   -203.89043   -312260.83 
     330    25.508001       162308    72.154131    72.154132    35.998705          120    15343.355    18133.125   -33838.344    6.1569669   -3955.3615   -2145.5678    72.154131    62.487311    35.998705   -120.62172   -312260.12 
     340    25.552162    162305.86    72.153814    72.153814    35.998547          120    15330.503    18326.122   -33632.269   -16.602667   -3943.9223   -2063.7823    72.153814    62.487036    35.998547    8.1183477   -312259.74 
     350    25.870415    162303.94     72.15353    72.153531    35.998406          120     15383.45    18479.264   -33331.374   -108.06967   -3954.2291   -1980.7187     72.15353    62.486791    35.998406    177.11339   -312260.06 
     360    26.028116     162303.3    72.153435    72.153436    35.998358          120    15456.257    18688.036   -32828.465   -112.43657   -3888.4997   -1884.8798    72.153435    62.486708    35.998358    438.60939   -312259.63 
     370    26.242788    162305.24    72.153722    72.153723    35.998501          120    15449.978    18974.716   -32659.633   -136.77691   -3786.3091    -1830.938    72.153722    62.486957    35.998501    588.35366    -312259.5 
     380    26.552409    162310.46    72.154496    72.154496    35.998887          120    15483.564    19194.619   -32714.752   -207.74366   -3825.4503    -1841.289    72.154496    62.487627    35.998887    654.47697   -312259.66 
     390    26.726338    162319.06     72.15577    72.155771    35.999523          120    15540.877    19100.709    -32867.59   -267.41867   -3822.7681   -1939.2897     72.15577    62.488731    35.999523     591.3317   -312259.62 
     400    26.777245     162330.3    72.157436    72.157436    36.000354          120    15278.094    18714.428    -33159.77   -312.47855   -3861.8061   -2001.7458    72.157436    62.490173    36.000354    277.58394   -312259.54 
     410     26.94976    162342.26    72.159208    72.159209    36.001238          120     15057.45    18407.463   -33552.581   -413.74441   -3971.5591   -1974.9483    72.159208    62.491708    36.001238   -29.222427   -312259.56 
     420     27.14142    162353.14    72.160819     72.16082    36.002042          120    14821.673    18293.344   -33720.287   -455.69205   -3992.9407   -1897.1665    72.160819    62.493103    36.002042   -201.75657   -312259.86 
     430    27.155262    162361.96    72.162126    72.162126    36.002694          120    14530.037    18273.445   -33754.061   -440.32839   -4014.8996   -1877.8926    72.162126    62.494235    36.002694   -316.85964   -312259.99 
     440     26.99419    162368.21    72.163053    72.163053    36.003156          120    14354.814    18141.773   -33609.903   -538.03442   -4025.0366    -1854.052    72.163053    62.495037    36.003156   -371.10514   -312259.55 
     450    27.115662    162371.87    72.163595    72.163595    36.003427          120     14450.22    18170.242   -33367.886   -546.82454   -3981.1666   -1772.4052    72.163595    62.495507    36.003427   -249.14178   -312260.03 
     460    27.263563     162373.7    72.163866    72.163866    36.003562          120    14450.771    18254.577   -33358.294   -493.62027    -4027.776   -1817.4331    72.163866    62.495742    36.003562   -217.64837   -312260.37 
     470    27.205877    162374.05    72.163918    72.163919    36.003588          120    14564.663    18221.387    -33570.12   -357.67058   -3917.0841   -1792.2773    72.163918    62.495787    36.003588   -261.35657   -312260.43 
     480    26.917918    162372.88    72.163745    72.163745    36.003502          120    14829.913    18255.459   -33732.773   -239.13472   -3811.4502   -1731.2596    72.163745    62.495637    36.003502    -215.8004   -312260.09 
     490     26.60514    162370.52    72.163394    72.163395    36.003327          120    15019.902    18315.317    -33849.52   -263.18186    -3897.216    -1789.186    72.163394    62.495333    36.003327   -171.43358   -312260.07 
     500    26.635608    162367.32    72.162921    72.162922    36.003091          120    15149.962    18428.629    -33934.49   -399.52462   -3958.2578   -1854.9819    72.162921    62.494924    36.003091   -118.63269   -312260.59 
     510    26.423152    162363.72    72.162387    72.162387    36.002824          120    15202.124    18486.586    -33716.96   -494.28862   -4080.9151   -1735.0631    72.162387    62.494461    36.002824    -9.416597   -312260.77 
     520    26.022888    162360.29     72.16188     72.16188    36.002571          120    15135.366    18465.048   -33467.464   -437.49182   -4247.9563   -1772.2322     72.16188    62.494022    36.002571    44.316797   -312260.66 
     530    25.984366    162357.36    72.161445    72.161446    36.002354          120    15041.001    18415.729   -33391.938   -353.84773   -4377.5285   -1934.8427    72.161445    62.493645    36.002354    21.597584   -312261.16 
     540    25.997418    162354.73    72.161055    72.161055     36.00216          120    14941.749    18312.785   -33534.315   -257.55472   -4361.0494   -1920.7926    72.161055    62.493307     36.00216   -93.260232   -312261.85 
     550     25.93803    162351.78    72.160618    72.160618    36.001942          120    14839.127    18387.364   -33614.924   -176.39059   -4172.6538   -2076.0651    72.160618    62.492929    36.001942   -129.47771   -312262.36 
     560     25.81327    162348.28    72.160099      72.1601    36.001683          120    14808.541    18602.535   -33790.913   -125.79838   -4081.5137   -2116.0438    72.160099     62.49248    36.001683   -126.61229   -312262.87 
     570    25.592647    162344.29    72.159509     72.15951    36.001388          120    14837.434    18702.968   -33871.899   -121.07214   -4100.6229   -2068.5465    72.159509    62.491969    36.001388   -110.49892   -312263.07 
     580    25.448035    162339.96    72.158867    72.158868    36.001068          120    14866.188     18708.98   -33806.278   -235.72322   -4185.5819   -2118.3972    72.158867    62.491413    36.001068   -77.036692   -312263.52 
     590    25.657109    162335.55    72.158213    72.158214    36.000742          120    15031.442    18714.433   -33608.342    -297.4414   -4316.2966   -2163.6373    72.158213    62.490846    36.000742    45.844157   -312264.62 
     600    25.747995    162331.75     72.15765    72.157651    36.000461          120    15066.241    18764.617   -33304.432   -326.68763   -4424.3763   -2199.2225     72.15765    62.490359    36.000461    175.47523   -312265.37 
     610    25.423202    162329.28    72.157284    72.157285    36.000278          120    15049.321    18876.359   -33020.259   -465.03764   -4423.0699   -2274.3121    72.157284    62.490042    36.000278    301.80698   -312265.57 
     620    24.998016    162328.81    72.157214    72.157215    36.000244          120    15209.264    18976.604   -32801.311   -527.61643   -4319.3424     -2418.61    72.157214    62.489981    36.000244      461.519   -312265.59 
     630    25.039876    162331.07     72.15755     72.15755    36.000411          120    15563.787    18894.814   -32818.928    -398.0221   -4118.0143   -2424.0821     72.15755    62.490272    36.000411    546.55795   -312266.52 
     640    25.238562    162336.39    72.158338    72.158338    36.000804          120    15812.162    18788.841   -32935.853   -253.02225   -3938.7062   -2430.0014    72.158338    62.490954    36.000804    555.04982   -312267.36 
     650    25.266551    162344.54    72.159545    72.159546    36.001406          120    15689.691    18690.739   -33025.552   -197.55576   -3843.8286   -2518.8039    72.159545       62.492    36.001406    451.62604   -312268.29 
     660    24.927235    162354.77    72.161062    72.161062    36.002163          120    15506.219    18787.628   -33149.891   -105.58263   -3766.4545   -2554.9658    72.161062    62.493313    36.002163    381.31856   -312268.39 
     670    24.930598    162366.59    72.162813    72.162813    36.003037          120    15400.305    19052.605   -33189.364   -23.994502   -3719.6805   -2478.9167    72.162813     62.49483    36.003037    421.18218   -312269.09 
     680    24.919781    162379.97    72.164794    72.164795    36.004025          120    15235.876     19056.45   -33245.664    75.999593   -3758.2625   -2225.3849    72.164794    62.496546    36.004025    348.88719   -312269.62 
     690    24.642938    162394.37    72.166927    72.166928    36.005089          120    14909.285    18920.499   -33291.058     174.3701   -3803.2079   -2109.8446    72.166927    62.498393    36.005089    179.57538   -312269.62 
     700    24.082732    162408.77    72.169061    72.169062    36.006154          120    14679.966    18749.828   -33376.461    118.00305   -3911.5795   -2233.7558    72.169061    62.500241    36.006154     17.77778   -312269.32 
     710    23.803487    162422.25    72.171058    72.171058     36.00715          120    14476.044    18802.496   -33520.332    27.895741    -4035.447   -2415.8672    72.171058     62.50197     36.00715   -80.597533   -312269.29 
     720    23.883976     162434.3    72.172842    72.172843     36.00804          120    14379.169    18872.933   -33584.042    -63.37162   -4110.1579   -2506.9801    72.172842    62.503515     36.00804   -110.64674   -312270.06 
     730    23.983334    162444.79    72.174395    72.174396    36.008815          120    14424.614    18772.621   -33715.063   -108.92945   -4162.5892   -2459.4856    72.174395     62.50486    36.008815   -172.60913   -312270.69 
     740    23.878394    162453.44    72.175677    72.175678    36.009455          120    14303.655    18579.273   -33790.495   -69.705349   -4030.1491   -2430.3472    72.175677    62.505971    36.009455   -302.52239   -312271.05 
     750    23.692171    162459.57    72.176584    72.176585    36.009908          120    14187.863    18294.525   -34225.004   -25.215875    -4004.594   -2471.6401    72.176584    62.506756    36.009908    -580.8717   -312271.13 
     760    23.653971    162461.85    72.176922    72.176923    36.010076          120    14238.331     18065.91   -34527.124   -82.059485   -4003.6981   -2532.5265    72.176922    62.507049    36.010076   -740.96121   -312271.74 
     770    23.473742    162459.64    72.176595    72.176595    36.009913          120     14276.15    17962.518   -34395.099    -146.2237   -3988.4999   -2549.0164    72.176595    62.506765    36.009913   -718.81006   -312271.52 
     780    23.447548    162453.35    72.175663    72.175663    36.009448          120     14380.47    18078.441   -34173.206   -172.50771    -4071.082   -2470.3746    72.175663    62.505958    36.009448   -571.43188   -312271.58 
     790    23.477334    162444.13    72.174298    72.174299    36.008767          120    14519.377    18352.453    -33942.01   -121.18184   -4099.4726   -2423.2473    72.174298    62.504777    36.008767   -356.72693   -312271.86 
     800    23.736484     162433.4    72.172708    72.172709    36.007974          120    14543.443    18490.979   -33825.276   -124.36941   -4088.9047   -2335.6247    72.172708      62.5034    36.007974   -263.61793    -312272.7 
     810    23.747053     162421.8    72.170991    72.170991    36.007117          120    14538.793    18354.784   -33694.998   -141.88374   -4134.7697   -2260.0183    72.170991    62.501912    36.007117   -267.14036   -312272.88 
     820    23.445301    162409.47    72.169165    72.169165    36.006206          120    14626.826    18451.706   -33668.393   -204.37999   -4123.5876   -2305.0323    72.169165    62.500331    36.006206   -196.62056   -312272.41 
     830    23.454654    162396.87    72.167298    72.167299    36.005275          120    14721.397    18590.891   -33594.438   -355.51471   -4060.9561   -2255.7319    72.167298    62.498714    36.005275    -94.05008    -312272.4 
     840    23.419678    162384.58    72.165478    72.165478    36.004366          120    14669.035    18712.846   -33473.736   -431.55688   -3974.8078   -2102.3049    72.165478    62.497138    36.004366   -30.618541   -312272.42 
     850    23.571143    162373.01    72.163764    72.163764    36.003511          120    14734.295    18848.704   -33330.158   -505.70886   -3983.1134   -2035.3307    72.163764    62.495653    36.003511    84.280167   -312272.31 
     860    23.828585     162362.8    72.162251    72.162251    36.002756          120    14897.439    19107.257   -33186.807   -462.76826   -4076.6218   -2112.3148    72.162251    62.494343    36.002756    272.62952   -312272.81 
     870     23.87818    162354.92    72.161083    72.161084    36.002174          120    15058.691    19293.814   -32986.065   -319.76924   -4143.0712   -2156.9732    72.161083    62.493332    36.002174    455.48012   -312272.52 
     880    23.897934    162350.25    72.160392    72.160393    36.001829          120    15210.225    19268.678   -32825.827    -255.7694   -4237.5029    -2228.721    72.160392    62.492733    36.001829    551.02516   -312272.52 
     890    23.954211    162349.13    72.160226    72.160227    36.001746          120    15317.992    19133.449   -32824.962   -270.79213    -4282.629   -2223.1277    72.160226     62.49259    36.001746    542.15999   -312272.25 
     900     24.07313    162351.27    72.160542    72.160543    36.001904          120     15306.02    19029.259   -32994.141   -227.52269   -4277.0087   -1922.0172    72.160542    62.492863    36.001904    447.04641   -312271.95 
     910    24.066577    162355.89    72.161227    72.161228    36.002246          120    15160.311    19095.247   -33229.102   -259.60772   -4180.1823   -1636.4441    72.161227    62.493457    36.002246     342.1522   -312271.66 
     920    24.121719    162362.26     72.16217    72.162171    36.002716          120    15048.017    19141.524   -33290.397   -252.21787   -4054.1758   -1572.8499     72.16217    62.494273    36.002716    299.71446   -312271.33 
     930    24.362352    162369.96    72.163312    72.163313    36.003286          120     15034.28    19056.908   -33277.527   -260.68038   -3985.8092   -1668.5068    72.163312    62.495262    36.003286    271.21998   -312271.39 
     940    24.515378    162378.71    72.164608    72.164609    36.003933          120    15074.324     18825.13   -33270.014   -365.55262   -3921.4968    -1848.014    72.164608    62.496385    36.003933    209.81326   -312271.02 
     950     24.72668    162388.12    72.166001    72.166002    36.004628          120    15071.661    18682.202   -33239.094   -392.76295   -3787.9535   -2100.6862    72.166001    62.497591    36.004628    171.58954   -312271.04 
     960    24.853001    162397.83     72.16744     72.16744    36.005345          120    14917.608    18595.612     -33454.2   -445.40966   -3739.6436   -2247.1751     72.16744    62.498837    36.005345    19.673387   -312270.75 
     970    24.947659    162406.95    72.168791    72.168791    36.006019          120    14768.288    18389.216   -33789.617   -520.34815   -3776.6072   -2298.9581    72.168791    62.500007    36.006019   -210.70417   -312270.58 
     980    25.134762    162414.18    72.169863    72.169863    36.006554          120     14661.76    18194.886   -34161.477   -511.55645    -3816.616   -2360.9765    72.169863    62.500935    36.006554   -434.94367   -312270.48 
     990    25.293664     162418.4    72.170487    72.170488    36.006866          120    14626.401    18177.615   -34333.768   -382.35455   -3834.6911   -2268.5464    72.170487    62.501476    36.006866   -509.91698   -312270.34 
    1000      25.3477    162419.38    72.170632    72.170633    36.006938          120    14710.197    18311.627   -34284.358   -272.44578    -3853.397   -2161.6291    72.170632    62.501602    36.006938   -420.84451    -312269.7 
    1010    25.343039     162417.8    72.170398    72.170398    36.006821          120    14721.757    18498.148   -34093.312   -249.21968   -3801.4676    -2090.031    72.170398    62.501398    36.006821   -291.13528   -312269.46 
    1020    25.524003    162414.61    72.169926    72.169927    36.006586          120    14778.409    18535.584    -33740.69   -302.45732   -3802.8797   -2168.4689    72.169926     62.50099    36.006586   -142.23265   -312269.31 
    1030    25.832615    162410.75    72.169354    72.169355      36.0063          120    14862.011     18563.29   -33612.579   -391.14797   -3806.3025   -2122.5668    72.169354    62.500495      36.0063   -62.426044   -312269.37 
    1040     25.74148    162406.78    72.168766    72.168766    36.006007          120    14870.622    18701.023   -33514.529   -417.67712   -3845.4857   -2034.9198    72.168766    62.499985    36.006007    19.039074   -312268.77 
    1050    25.852614    162403.19    72.168235    72.168235    36.005742          120     14918.04    18855.771   -33406.353   -338.46712   -3786.2033   -2109.1953    72.168235    62.499525    36.005742    122.48611   -312268.52 
    1060     26.10217    162400.54    72.167841    72.167842    36.005545          120    15014.712    18852.608   -33384.728   -119.67273   -3793.4666   -2093.2523    72.167841    62.499184    36.005545    160.86391   -312268.76 
    1070    26.008386    162398.99    72.167612    72.167613    36.005431          120     14972.86    18864.885   -33389.641   -56.882463   -3900.6108   -2159.3611    72.167612    62.498986    36.005431    149.36813   -312268.32 
    1080    26.030498    162398.42    72.167528    72.167529    36.005389          120    14883.768    18763.537    -33326.66   -153.48128   -3892.0738   -2153.4185    72.167528    62.498913    36.005389     106.8817   -312268.41 
    1090    26.262128    162398.49    72.167537    72.167538    36.005394          120     14790.87    18596.215   -33391.759   -285.30585   -3939.1496   -2117.6606    72.167537    62.498921    36.005394    -1.558086   -312268.65 
    1100    26.332912    162398.55    72.167547    72.167548    36.005399          120     14800.79     18521.15   -33549.951   -317.89259   -4134.5461    -1930.403    72.167547     62.49893    36.005399   -76.003452   -312268.46 
    1110    26.302473    162398.24    72.167502    72.167502    36.005376          120    14906.158    18534.436   -33483.954   -174.29956   -4207.1622   -1932.4078    72.167502     62.49889    36.005376   -14.453486   -312268.17 
    1120    26.339189    162397.88    72.167447    72.167448    36.005349          120    14971.039    18691.549    -33465.85    -237.4278   -4103.5188   -2130.7978    72.167447    62.498843    36.005349    65.579222   -312268.44 
    1130    26.443827    162397.89    72.167449    72.167449     36.00535          120    14965.853     18705.65   -33508.529   -380.73632   -4089.0752   -2204.0488    72.167449    62.498845     36.00535    54.324914   -312268.57 
    1140    26.377835    162398.15    72.167487    72.167488    36.005369          120    14882.163    18632.352   -33738.396   -515.40663   -4125.1291   -2343.4266    72.167487    62.498878    36.005369   -74.626971   -312268.48 
    1150    26.336571    162397.95    72.167458    72.167459    36.005354          120    14788.445    18579.447   -33919.991   -639.81046   -4034.3702   -2474.4225    72.167458    62.498853    36.005354    -184.0331   -312268.54 
    1160    26.180063    162396.73    72.167277    72.167278    36.005264          120    14869.745     18482.05   -33844.846   -680.54923   -3851.4067   -2506.6224    72.167277    62.498696    36.005264   -164.35027   -312268.55 
    1170    26.089481    162394.62    72.166964    72.166965    36.005108          120    15025.687    18392.954   -33742.282    -526.8791   -3664.5691   -2414.0752    72.166964    62.498425    36.005108   -107.88032   -312268.66 
    1180    25.965025       162392    72.166577    72.166577    36.004914          120    15166.262    18320.054    -33639.88   -385.71721   -3486.9854   -2184.8611    72.166577    62.498089    36.004914   -51.188116   -312268.61 
    1190     25.72787    162389.25    72.166169     72.16617    36.004711          120    15336.486    18263.758   -33608.958   -394.43738   -3533.2527   -2045.2709    72.166169    62.497736    36.004711   -2.9045195   -312268.54 
    1200    25.851434     162386.6    72.165777    72.165777    36.004515          120    15268.372    18210.141   -33575.723   -428.43689   -3715.0685   -1951.8412    72.165777    62.497397    36.004515   -32.403389   -312269.52 
    1210     25.90629    162383.96    72.165386    72.165387    36.004321          120    15160.722    18356.485   -33534.648    -620.6526   -3761.2592    -1938.458    72.165386    62.497058    36.004321   -5.8136428   -312270.15 
    1220    25.776135    162381.48    72.165019     72.16502    36.004137          120    15248.779    18475.155   -33515.313   -802.61471   -3762.7402   -2093.1469    72.165019     62.49674    36.004137    69.540473   -312270.24 
    1230    25.676581    162379.59    72.164738    72.164739    36.003997          120    15412.924    18590.388   -33531.538   -942.20451   -3817.3906   -2268.6497    72.164738    62.496497    36.003997     157.2579   -312270.31 
    1240    25.449222    162378.72     72.16461     72.16461    36.003933          120    15524.214     18724.49   -33618.137   -935.37845   -3865.8149   -2456.6891     72.16461    62.496386    36.003933    210.18925   -312270.05 
    1250    25.584293    162379.18    72.164677    72.164678    36.003967          120    15591.452    18761.355   -33506.866   -781.44735    -3827.057    -2555.857    72.164677    62.496444    36.003967    281.98053    -312270.7 
    1260    25.286429    162381.25    72.164984    72.164985     36.00412          120    15612.545    18670.338   -33462.869   -614.36919   -3850.6959   -2421.2409    72.164984     62.49671     36.00412    273.33789   -312270.67 
    1270    25.065336    162384.73      72.1655      72.1655    36.004377          120    15386.383    18445.947   -33546.868   -573.08735   -3755.4563   -2295.3893      72.1655    62.497157    36.004377    95.153815    -312270.6 
    1280     25.02106    162388.54    72.166064    72.166065    36.004659          120    15080.398    18353.193   -33754.742   -610.42776   -3615.6826   -2086.7176    72.166064    62.497645    36.004659   -107.05028   -312270.97 
    1290    25.097343    162391.54    72.166509     72.16651    36.004881          120    15085.196    18315.485   -33853.033    -598.5967   -3543.9323    -1893.227    72.166509    62.498031    36.004881   -150.78424   -312271.29 
    1300    24.709069    162393.51      72.1668    72.166801    36.005026          120    15194.499    18373.769   -33770.463   -549.86229   -3483.2076   -2039.8993      72.1668    62.498283    36.005026    -67.39847   -312270.92 
    1310    24.600086    162394.95    72.167013    72.167014    36.005132          120    15427.552    18398.895   -33688.489   -333.97914   -3538.8998   -2300.9844    72.167013    62.498468    36.005132    45.985756    -312271.1 
    1320    24.546801     162396.6    72.167259    72.167259    36.005255          120    15632.032    18473.455   -33531.098   -261.11355   -3466.3142   -2515.8199    72.167259     62.49868    36.005255    191.46302   -312271.34 
    1330    24.482603    162399.25     72.16765    72.167651     36.00545          120    15552.917    18700.078    -33468.83   -185.36164   -3479.4708   -2620.1119     72.16765    62.499019     36.00545     261.3881   -312271.93 
    1340    24.454133    162403.32    72.168253    72.168254    36.005751          120     15556.14    18867.799   -33275.932    -275.9098   -3484.7549   -2808.6628    72.168253    62.499541    36.005751    382.66902   -312272.23 
    1350    24.360813    162409.37    72.169149     72.16915    36.006198          120    15613.331    18767.393    -33174.44   -469.82466   -3484.5696   -2756.9836    72.169149    62.500317    36.006198    402.09464   -312272.49 
    1360     24.24038    162417.34     72.17033    72.170331    36.006787          120    15574.764    18488.635   -33339.125   -515.03719   -3452.6203   -2579.0954     72.17033     62.50134    36.006787    241.42503   -312272.69 
    1370    24.333975     162426.2    72.171643    72.171643    36.007442          120    15288.908     18311.04   -33721.376   -417.34061   -3391.7138    -2483.136    72.171643    62.502476    36.007442   -40.475977   -312273.17 
    1380     24.34698    162434.21    72.172829     72.17283    36.008034          120    14975.753    18091.988   -34254.796   -347.53824   -3383.9115   -2382.7491    72.172829    62.503504    36.008034   -395.68491   -312273.28 
    1390    24.032132    162439.42    72.173601    72.173601    36.008419          120    14669.054    18008.418    -34513.84   -357.95903   -3440.4642   -2228.5103    72.173601    62.504172    36.008419    -612.1225   -312272.89 
    1400     23.93489    162440.76    72.173799      72.1738    36.008518          120     14699.55    18043.251   -34456.919   -457.93766   -3455.0599   -2081.9239    72.173799    62.504344    36.008518   -571.37292   -312273.32 
    1410    24.102682    162438.68    72.173491    72.173491    36.008364          120    14947.659    18115.537   -34209.616   -585.31256   -3383.9905   -2105.6682    72.173491    62.504077    36.008364   -382.13993   -312274.01 
    1420     24.06119    162434.43    72.172861    72.172862     36.00805          120    15061.444    18343.876   -34041.626   -670.38714   -3434.6795   -2051.9631    72.172861    62.503532     36.00805   -212.10198   -312274.03 
    1430    24.110998    162429.14    72.172077    72.172078    36.007659          120    15090.006    18552.173   -33928.101   -704.02451   -3566.4825   -2038.0153    72.172077    62.502853    36.007659   -95.307007   -312274.22 
    1440    23.933058    162423.58    72.171255    72.171255    36.007248          120    15182.883    18665.039   -33890.035   -644.71277   -3603.7165   -2116.9776    72.171255    62.502141    36.007248   -14.037585   -312273.89 
    1450    24.199152    162418.24    72.170464    72.170465    36.006854          120    15106.659     18810.56   -33938.693   -683.50253   -3662.5331   -2237.9004    72.170464    62.501456    36.006854   -7.1578125    -312274.4 
    1460    24.213093    162413.15     72.16971     72.16971    36.006478          120    15020.179     18867.88   -34063.556   -712.88285   -3663.5724   -2159.6671     72.16971    62.500803    36.006478   -58.499324   -312274.48 
    1470    24.351349    162408.06    72.168955    72.168955    36.006101          120    15248.853    18710.871   -34091.459   -643.39339   -3658.4962   -2026.6183    72.168955    62.500149    36.006101    -43.91161   -312274.93 
    1480    24.438633    162403.01    72.168207    72.168208    36.005728          120     15291.34    18539.607    -33943.58   -627.24905    -3718.056    -1758.269    72.168207    62.499501    36.005728   -37.544668   -312274.97 
    1490    24.438954    162397.99    72.167464    72.167464    36.005357          120    15222.029    18277.345   -33808.414   -570.58356   -3739.8128   -1560.4981    72.167464    62.498858    36.005357   -103.01334   -312274.76 
    1500    24.343635    162392.72    72.166683    72.166684    36.004968          120    15227.085    18326.148   -33734.703    -513.7702    -3741.525   -1457.8394    72.166683    62.498182    36.004968   -60.490043   -312274.38 
    1510     24.33535    162387.44    72.165901    72.165901    36.004577          120      15160.6    18562.275    -33580.96   -536.51528   -3798.0042   -1406.9172    72.165901    62.497504    36.004577    47.304831   -312274.26 
    1520    24.306783    162382.71      72.1652    72.165201    36.004228          120    15046.002    18637.787   -33483.096   -592.25882    -3920.343   -1479.3731      72.1652    62.496897    36.004228    66.897487   -312273.94 
    1530    24.558784    162378.63    72.164597    72.164597    36.003927          120    15038.975    18532.731   -33497.977   -672.21561   -3936.9551   -1694.4447    72.164597    62.496374    36.003927    24.576239   -312274.24 
    1540    24.730443    162375.02    72.164061    72.164062     36.00366          120    15270.234    18554.533   -33488.698   -601.83044   -3906.7091    -1819.913    72.164061    62.495911     36.00366     112.0229   -312274.48 
    1550    24.506014    162372.29    72.163657    72.163658    36.003458          120    15476.769    18588.501   -33400.366   -527.25832   -3795.8303   -1782.5354    72.163657    62.495561    36.003458    221.63453   -312273.77 
    1560    24.539662    162371.01    72.163468    72.163468    36.003363          120    15477.635    18572.853   -33224.822   -461.95031   -3612.2636   -1792.6695    72.163468    62.495397    36.003363    275.22219   -312273.76 
    1570    24.590087    162371.42    72.163529    72.163529    36.003394          120    15413.771    18607.324   -33196.118   -395.42251   -3518.5528   -1855.8796    72.163529     62.49545    36.003394    274.99235   -312273.74 
    1580    24.515756    162373.44    72.163827    72.163827    36.003543          120    15269.135    18710.243   -33252.505   -449.42594   -3375.4793   -1920.2425    72.163827    62.495708    36.003543    242.29084   -312273.43 
    1590     24.67486    162376.74    72.164316    72.164316    36.003786          120    15070.772     18777.12   -33371.918   -532.89991   -3403.5651   -1933.4558    72.164316    62.496131    36.003786    158.65774   -312273.28 
    1600     24.98872    162380.79    72.164916    72.164916    36.004086          120    15027.897     18723.93   -33431.098    -528.6929   -3443.4059   -1809.0584    72.164916    62.496651    36.004086    106.90964   -312273.59 
    1610    24.986833    162385.29    72.165583    72.165584    36.004419          120    15113.536    18839.393   -33445.247   -506.82842   -3562.9782   -1835.2682    72.165583    62.497229    36.004419    169.22739   -312273.38 
    1620    24.953126    162390.54    72.166361    72.166361    36.004807          120    15339.952    18943.554   -33539.937   -452.30065    -3726.362    -2037.615    72.166361    62.497902    36.004807    247.85676   -312273.13 
    1630    25.256863    162396.94    72.167308    72.167309     36.00528          120    15420.113    18899.922   -33508.544   -484.43594   -3804.5537   -2145.4583    72.167308    62.498723     36.00528    270.49679   -312273.56 
    1640    25.541512    162404.53    72.168432    72.168433     36.00584          120    15190.009     18981.38   -33535.552   -619.80946   -3807.0585   -2127.8816    72.168432    62.499696     36.00584    211.94587   -312273.71 
    1650    25.636077    162412.99    72.169686    72.169687    36.006466          120    15180.189    19137.851   -33571.638   -686.89499   -3833.6129    -1958.045    72.169686    62.500782    36.006466    248.80089   -312273.65 
    1660     25.33962    162422.44    72.171085    72.171086    36.007164          120    15297.919    19109.233    -33592.85   -760.02348   -3903.4488    -1923.726    72.171085    62.501994    36.007164    271.43381   -312272.77 
    1670    25.608889    162432.86    72.172629     72.17263    36.007934          120    15114.654    18834.417   -33570.723   -705.22774   -3810.6843   -1995.4011    72.172629    62.503331    36.007934    126.11633   -312273.16 
    1680    25.577398     162443.4     72.17419    72.174191    36.008713          120    14900.225    18497.985   -33581.854   -646.30213   -3640.9042   -2077.8612     72.17419    62.504683    36.008713   -61.214432   -312272.93 
    1690     25.76635    162452.99     72.17561    72.175611    36.009422          120    14839.173    18398.648   -33738.139   -588.49834   -3542.4093   -2230.3596     72.17561    62.505913    36.009422   -166.77277   -312273.09 
    1700     25.88728    162461.04    72.176803    72.176803    36.010016          120    14767.444    18393.649   -33763.227   -523.99837   -3599.7791    -2192.834    72.176803    62.506945    36.010016   -200.71139    -312273.1 
    1710    25.973523    162467.41    72.177746    72.177746    36.010487          120     14702.72    18201.818   -33622.233   -536.56101     -3796.21   -2098.5526    72.177746    62.507762    36.010487   -239.23169   -312273.27 
    1720    25.907492       162472    72.178426    72.178427    36.010826          120    14771.203    18112.203   -33556.351   -525.53579   -3838.0561   -2030.7534    72.178426    62.508351    36.010826   -224.31495   -312272.94 
    1730    26.024844    162475.03    72.178874    72.178874     36.01105          120    14894.414    18267.525   -33544.208   -423.48944   -3805.3044   -2030.6993    72.178874    62.508739     36.01105   -127.42277   -312273.17 
    1740    26.055928    162477.12    72.179183    72.179184    36.011204          120    15010.635    18342.978    -33395.44    -234.5586   -3872.6195   -2062.2612    72.179183    62.509007    36.011204    -13.94249   -312273.04 
    1750    25.942081    162478.94    72.179453    72.179454    36.011339          120    15041.041    18355.551   -33411.741    -221.6095   -3991.7583   -2134.0049    72.179453    62.509241    36.011339    -5.049567    -312272.8 
    1760    25.881298    162480.53    72.179689    72.179689    36.011456          120    14879.661    18326.038   -33741.903    -274.6587   -4073.1626   -2421.5629    72.179689    62.509445    36.011456   -178.73476   -312272.83 
    1770    25.839886    162480.92    72.179746    72.179747    36.011485          120     14725.99    18357.447   -34281.044   -256.94829   -4077.6219   -2647.4488    72.179746    62.509495    36.011485    -399.2025   -312272.86 
    1780    25.977117    162479.03    72.179466    72.179467    36.011345          120    14839.643    18511.869   -34417.701     -277.162   -3919.0887   -2631.9476    72.179466    62.509252    36.011345   -355.39654   -312273.09 
    1790    25.910618    162475.23    72.178903    72.178904    36.011064          120     15058.67    18673.367   -34028.116   -242.76627   -3767.1417   -2582.3342    72.178903    62.508765    36.011064   -98.692987   -312272.95 
    1800    25.842395    162470.99    72.178277    72.178277    36.010752          120    15201.026    18813.589   -33775.471   -82.551643   -3814.2109   -2596.6386    72.178277    62.508222    36.010752    79.714678   -312273.12 
    1810    25.694432    162467.46    72.177752    72.177753     36.01049          120    15346.181    18836.777   -33587.303    20.038019   -3754.7204   -2412.9547    72.177752    62.507768     36.01049    198.55154   -312273.19 
    1820    25.833253    162465.25    72.177426    72.177426    36.010327          120    15371.032    18560.553   -33310.938   -26.856613   -3668.2661   -2286.3382    72.177426    62.507485    36.010327    206.88238   -312273.74 
    1830    25.757971    162464.29    72.177284    72.177285    36.010257          120     15271.78    18160.483   -33385.706   -131.08036   -3552.7657   -2174.3585    72.177284    62.507362    36.010257    15.519102   -312274.15 
    1840    25.663701    162463.49    72.177164    72.177165    36.010197          120    15104.022    18060.491   -33597.739   -290.90676   -3508.4166   -2093.7546    72.177164    62.507259    36.010197   -144.40893   -312274.27 
    1850    25.425765    162461.95    72.176938    72.176938    36.010084          120    15124.569    18223.915   -33629.313   -407.30128     -3609.57   -2225.4167    72.176938    62.507062    36.010084   -93.609419   -312274.22 
    1860    25.314825    162459.96    72.176642    72.176642    36.009936          120    15233.732    18486.911   -33648.014   -456.47684   -3704.3553   -2517.9271    72.176642    62.506806    36.009936    24.209905   -312274.21 
    1870     24.89587    162458.22    72.176385    72.176385    36.009808          120    15392.548    18756.149   -33644.265   -380.02443   -3801.0616    -2676.219    72.176385    62.506583    36.009808    168.14417   -312273.85 
    1880    25.031141    162457.62    72.176295    72.176296    36.009763          120    15722.474    18836.369   -33481.118   -392.78747   -3636.2272   -2550.9567    72.176295    62.506506    36.009763     359.2413   -312274.62 
    1890    25.124476    162459.15    72.176522    72.176523    36.009877          120    15901.527    18932.519   -33463.648   -494.67931   -3580.0504   -2379.8157    72.176522    62.506703    36.009877    456.79939    -312275.3 
    1900    25.014194    162463.28    72.177133    72.177134    36.010181          120    15875.985    18897.614   -33458.388   -657.13955   -3621.4973   -2260.4184    72.177133    62.507232    36.010181    438.40371   -312275.52 
    1910    25.020939    162469.77    72.178095    72.178096    36.010661          120    15740.449    18756.748   -33463.311   -821.23996   -3533.4494   -2217.8047    72.178095    62.508065    36.010661    344.62872   -312275.92 
    1920    24.732382    162477.89    72.179298    72.179299    36.011261          120    15371.931    18586.615    -33497.94   -763.15618   -3508.7046    -2165.301    72.179298    62.509106    36.011261    153.53536   -312275.66 
    1930    24.393996    162486.56    72.180581    72.180581    36.011901          120    15129.117    18579.906   -33426.397   -640.28196   -3340.2502   -2136.5092    72.180581    62.510217    36.011901    94.208653   -312275.27 
    1940    24.247185    162495.26    72.181869     72.18187    36.012544          120    14958.472    18530.805   -33495.279   -567.10864   -3128.8067   -2241.2435    72.181869    62.511333    36.012544   -2.0006774   -312275.14 
    1950    24.385746    162503.41    72.183077    72.183077    36.013147          120    14770.377    18389.703   -33656.164   -565.33674   -3245.6992   -2404.7057    72.183077    62.512379    36.013147   -165.36118   -312275.78 
    1960    24.254473    162510.14    72.184073    72.184073    36.013644          120    14744.324    18281.171   -33809.677   -642.69793   -3506.8636   -2474.3221    72.184073    62.513241    36.013644   -261.39397    -312275.9 
    1970    24.299121    162514.96    72.184787    72.184788       36.014          120    14791.425    18308.442   -33929.399   -688.01815    -3721.801    -2361.357    72.184787     62.51386       36.014   -276.51047   -312276.16 
    1980    24.393192     162517.8    72.185208    72.185208     36.01421          120    14718.147    18238.797   -34062.994   -685.21381   -3924.4635   -2310.1416    72.185208    62.514224     36.01421   -368.68339   -312276.61 
    1990    24.269021    162518.25    72.185274    72.185275    36.014243          120    14394.429    18167.936   -33968.488   -699.30251   -4014.1592    -2281.829    72.185274    62.514282    36.014243   -468.70765   -312276.55 
    2000    24.150038    162515.94    72.184932    72.184932    36.014072          120    14331.564    18250.652   -33796.558    -626.0837   -4055.3915   -2239.8214    72.184932    62.513985    36.014072    -404.7807   -312276.68 
    2010    24.356186    162511.37    72.184254    72.184255    36.013734          120    14493.671    18412.422   -33614.616   -497.11965   -3944.5057   -2145.1693    72.184254    62.513399    36.013734   -236.17406   -312277.25 
    2020    24.467516    162505.64    72.183407    72.183407    36.013311          120    14839.854    18344.608   -33288.246   -426.14397     -3858.26   -1977.7084    72.183407    62.512664    36.013311   -34.594294   -312277.65 
    2030    24.169106    162499.94    72.182563    72.182564     36.01289          120    15079.206    18205.622    -33236.48   -413.39431   -4047.5181   -1923.8208    72.182563    62.511934     36.01289    16.115983   -312276.95 
    2040    23.990315    162494.58    72.181768    72.181769    36.012494          120    14932.829    18277.416   -33403.922   -433.04908   -4160.3619   -1889.6922    72.181768    62.511246    36.012494   -64.559039    -312276.9 
    2050    24.123661    162489.12    72.180961    72.180962    36.012091          120    14850.638     18290.43   -33491.823   -403.89209    -4070.161   -1843.4537    72.180961    62.510547    36.012091   -116.91832   -312277.17 
    2060    24.367882    162483.32    72.180101    72.180102    36.011662          120    14822.413    18467.512    -33509.16   -388.66225   -4058.2379    -1801.133    72.180101    62.509802    36.011662   -73.078121   -312277.63 
    2070      24.2296    162477.41    72.179227    72.179228    36.011226          120    14885.656    18625.368   -33506.813   -362.63325   -4157.4818   -1894.9044    72.179227    62.509045    36.011226    1.4035062   -312277.17 
    2080    24.230607    162471.77    72.178392    72.178393    36.010809          120    15010.416    18601.492    -33654.64   -394.89442   -4255.2719   -2055.0463    72.178392    62.508322    36.010809   -14.244142   -312277.23 
    2090    24.289917    162466.33    72.177586    72.177587    36.010407          120    15019.836    18601.854   -33745.242   -493.86142   -4283.8683   -2087.4055    72.177586    62.507624    36.010407   -41.183918   -312277.47 
    2100     24.30197    162460.97    72.176792    72.176793    36.010011          120    14990.861    18757.403   -33706.833   -561.57883   -4297.5623   -2146.2752    72.176792    62.506936    36.010011    13.810402   -312277.35 
    2110    24.459389       162456    72.176056    72.176057    36.009644          120    14991.921    19023.729   -33678.746   -591.22241   -4324.4476   -2211.4079    72.176056    62.506299    36.009644    112.30121   -312277.62 
    2120    24.594179       162452    72.175464    72.175464    36.009348          120    15055.653    19323.843   -33580.589      -597.42   -4317.5958   -2124.7739    72.175464    62.505786    36.009348    266.30229   -312277.79 
    2130    24.970113    162449.82    72.175141    72.175142    36.009188          120    15201.116    19512.036   -33410.316   -594.36613   -4213.4174   -2102.5587    72.175141    62.505506    36.009188    434.27867    -312278.3 
    2140    25.062969    162450.34    72.175218    72.175219    36.009226          120    15323.388    19528.133   -33196.418   -542.51647   -4162.6673   -2085.5409    72.175218    62.505573    36.009226    551.70071   -312278.23 
    2150    24.839215    162454.05    72.175768    72.175768      36.0095          120    15279.542    19461.662   -33241.149   -559.38214   -4159.4219   -2145.4951    72.175768    62.506049      36.0095    500.01835   -312277.77 
    2160    24.746487     162460.5    72.176722    72.176722    36.009976          120    15206.525     19201.87   -33461.255   -627.15938   -4141.2855   -2219.0018    72.176722    62.506875    36.009976    315.71328   -312277.23 
    2170    24.840033    162468.53    72.177912    72.177912     36.01057          120    15155.491    19095.419   -33641.234    -662.9476   -4159.6175   -2362.1025    72.177912    62.507906     36.01057    203.22526   -312277.34 
    2180    24.886554    162477.38    72.179222    72.179222    36.011223          120    15052.777    19025.653   -33671.256   -767.48062    -4003.484   -2371.7984    72.179222     62.50904    36.011223    135.72464   -312277.42 
    2190    25.034719    162486.52    72.180576    72.180576    36.011899          120    14957.318    18878.674   -33872.626   -823.68249   -3843.3493    -2386.456    72.180576    62.510213    36.011899   -12.211319   -312277.45 
    2200    25.255422    162495.02    72.181834    72.181835    36.012527          120    14889.673     18568.51   -34270.362   -840.93884   -3970.9238   -2437.4612    72.181834    62.511303    36.012527   -270.72646   -312277.55 
    2210    25.535433     162501.5    72.182793    72.182794    36.013005          120    14811.863    18394.433    -34377.85   -775.90757   -4101.5059    -2497.495    72.182793    62.512133    36.013005   -390.51812   -312277.96 
    2220    25.305115    162505.35    72.183363    72.183364    36.013289          120    14693.184    18395.125   -34239.234   -576.62822   -4144.4927   -2614.4907    72.183363    62.512627    36.013289   -383.64165   -312277.42 
    2230    25.051188    162506.66    72.183558    72.183559    36.013387          120    14636.183    18253.209   -33984.294   -543.44351   -4049.5864   -2626.6707    72.183558    62.512796    36.013387   -364.96713   -312277.01 
    2240     25.08001    162505.85    72.183438    72.183439    36.013327          120    14870.769     18374.47   -33563.518   -596.15262   -3944.2295   -2549.4525    72.183438    62.512692    36.013327   -106.09299   -312276.78 
    2250    25.136073    162504.41    72.183224    72.183225     36.01322          120    15228.023    18534.474   -33463.527   -627.25226   -3923.1831   -2396.4746    72.183224    62.512506     36.01322    99.656328   -312276.66 
    2260    25.225374    162503.52    72.183092    72.183093    36.013154          120    15170.908    18555.631   -33498.062   -626.39979   -3864.4373   -2261.4172    72.183092    62.512392    36.013154    76.159193   -312276.76 
[...]
   99200    25.079317    162592.72    72.196298    72.196299    36.019743          120    15060.134    18509.123   -34276.581   -892.89168   -3796.9209   -2046.5989    72.196298    62.523829    36.019743   -235.77445   -312281.81 
   99210    25.205813    162593.64    72.196434    72.196434    36.019811          120    15066.386     18619.27   -34358.078   -725.35818   -3825.6619   -2197.7683    72.196434    62.523946    36.019811    -224.1408   -312282.06 
   99220    25.021619    162593.26    72.196378    72.196378    36.019783          120    15307.176    18830.882   -34289.956   -632.10716   -3635.2551   -2385.5622    72.196378    62.523898    36.019783   -50.632846   -312281.55 
   99230     25.10807    162592.54    72.196271    72.196272     36.01973          120    15347.452    18889.921   -33951.488   -590.75616    -3637.396   -2412.1098    72.196271    62.523806     36.01973    95.295015   -312281.74 
   99240    25.123031    162592.38    72.196248    72.196248    36.019718          120    15274.797    19084.071   -33869.778   -517.13778    -3632.636    -2427.256    72.196248    62.523785    36.019718    163.02972   -312281.71 
   99250    25.165311    162593.15    72.196362    72.196363    36.019775          120    15139.739    19244.975   -34085.101   -562.64384   -3608.8992   -2298.2955    72.196362    62.523884    36.019775    99.871121   -312281.68 
   99260    25.022244    162594.51    72.196562    72.196563    36.019875          120    15086.291    19076.542    -34136.54   -563.16853   -3805.0155   -2218.1965    72.196562    62.524057    36.019875    8.7644665    -312281.5 
   99270    25.058727       162596    72.196783    72.196784    36.019985          120    15170.694    18873.313   -33783.248   -511.97797    -3662.624   -2087.7694    72.196783    62.524249    36.019985    86.919548   -312281.21 
   99280     24.98966    162597.95    72.197071    72.197072    36.020129          120    15207.496    18798.149   -33842.552   -582.32945   -3479.3025   -1889.5093    72.197071    62.524498    36.020129    54.364131   -312281.17 
   99290    24.960189    162600.13    72.197395    72.197395     36.02029          120    15229.552    18646.216   -34199.459   -632.77548   -3594.2408   -1947.9935    72.197395    62.524779     36.02029   -107.89689   -312281.42 
   99300    24.995777    162601.69    72.197625    72.197625    36.020405          120    14988.854    18669.321   -34202.009   -553.59579   -3863.1429   -2057.3447    72.197625    62.524978    36.020405   -181.27806   -312281.59 
   99310    25.044806    162602.17    72.197696    72.197696     36.02044          120    14875.099    18811.793    -34127.69   -635.00221   -3856.1061   -2115.8962    72.197696    62.525039     36.02044   -146.93274   -312281.75 
   99320     25.09873    162601.75    72.197634    72.197635     36.02041          120    14918.917    18671.665   -33978.103   -628.77569   -3862.6543   -2066.3484    72.197634    62.524986     36.02041    -129.1737   -312281.84 
   99330    24.972849    162600.49    72.197448    72.197448    36.020317          120    15114.265    18440.529   -34143.385   -535.03182   -3875.2956   -2211.1446    72.197448    62.524825    36.020317   -196.19709   -312281.65 
   99340    24.913905    162598.07    72.197089    72.197089    36.020137          120     15143.39    18261.028   -34138.317   -516.55211   -3887.1979   -2454.5862    72.197089    62.524514    36.020137   -244.63301   -312281.61 
   99350    24.974737    162594.06    72.196497    72.196497    36.019842          120    15074.371    18211.563   -34356.732   -606.26852   -3950.9491   -2715.0058    72.196497    62.524001    36.019842   -356.93262   -312281.66 
   99360    24.874443    162588.08     72.19561    72.195611      36.0194          120    15230.621    18644.938    -34291.86   -689.20698   -3846.8489   -2576.2829     72.19561    62.523233      36.0194   -138.76688    -312281.8 
   99370     24.95092    162581.26    72.194601    72.194602    36.018896          120    15293.719    19053.057   -34055.969   -618.41317   -3696.5994    -2348.254    72.194601    62.522359    36.018896    96.935422    -312282.1 
   99380    25.003358    162575.05    72.193683    72.193683    36.018438          120    15433.698    19158.936   -33832.153   -582.23157   -3511.2476   -2073.3333    72.193683    62.521564    36.018438    253.49359   -312282.12 
   99390    25.131091    162570.39    72.192992    72.192993    36.018094          120    15439.399    19132.951   -33774.671    -459.0353   -3874.5915   -1975.5163    72.192992    62.520966    36.018094    265.89288   -312282.26 
   99400    24.696812    162567.37    72.192546    72.192546    36.017871          120    15608.487    18937.693   -33924.495   -384.93684   -4053.2446   -2158.8415    72.192546    62.520579    36.017871    207.22817   -312281.64 
   99410    24.808171    162565.63    72.192287    72.192288    36.017742          120    15716.802    18687.655   -34041.851   -634.94468   -3910.0325   -2090.6398    72.192287    62.520356    36.017742    120.86872   -312282.09 
   99420    25.082584    162564.64    72.192142    72.192142    36.017669          120    15441.105    18931.377    -34110.42   -731.50265   -3749.1048    -2174.727    72.192142    62.520229    36.017669    87.354191   -312282.64 
   99430    24.837387    162564.33    72.192095    72.192095    36.017646          120    15473.844    19134.341   -33834.778   -573.54655   -3734.1968      -2548.7    72.192095    62.520189    36.017646    257.80251   -312282.12 
   99440     24.75754    162565.44     72.19226     72.19226    36.017728          120    15425.905    19163.639   -33914.324   -690.53617   -3959.8143   -2615.5293     72.19226    62.520332    36.017728     225.0735   -312281.98 
   99450    24.973245    162567.92    72.192627    72.192628    36.017911          120     15383.27    19027.657   -33935.374   -632.16064   -3872.6355   -2538.6049    72.192627     62.52065    36.017911    158.51764   -312282.53 
   99460    24.781267    162571.39     72.19314     72.19314    36.018167          120    15501.807    18879.875   -33971.547   -443.62291   -3668.1406   -2255.8955     72.19314    62.521094    36.018167    136.71163   -312282.18 
   99470    24.774467    162575.67    72.193774    72.193775    36.018484          120    15599.179    18673.927   -33893.341   -680.46335   -3641.3823    -1967.152    72.193774    62.521643    36.018484    126.58809   -312282.51 
   99480    24.990436    162580.71     72.19452    72.194521    36.018856          120    15553.117    18810.439   -33923.003   -783.71396   -3689.0637   -2013.8276     72.19452    62.522289    36.018856    146.85088   -312282.64 
   99490    24.804383     162586.6    72.195392    72.195393    36.019291          120    15324.626    18932.347   -33888.688   -577.87889   -3784.5267   -2253.7654    72.195392    62.523045    36.019291    122.76174    -312282.1 
   99500    24.979123    162593.09    72.196352    72.196353     36.01977          120    15001.266    18743.552   -34073.911   -563.29382   -3913.2944   -2232.5003    72.196352    62.523876     36.01977   -109.69772   -312282.22 
   99510    24.753658    162598.95    72.197219     72.19722    36.020203          120    14853.215     18892.49   -34332.326   -713.22798   -3871.5244   -1872.3959    72.197219    62.524627    36.020203   -195.54065   -312281.74 
   99520    24.783539    162603.52    72.197896    72.197897     36.02054          120    14684.404    18809.778   -34296.095   -603.02734   -3916.3842   -2057.7633    72.197896    62.525213     36.02054   -267.30427   -312281.76 
   99530    25.146973    162606.42    72.198325    72.198326    36.020754          120    14738.729    18595.936   -34280.354   -637.95653   -3958.5401   -2258.6853    72.198325    62.525584    36.020754   -315.22956   -312282.24 
   99540    24.773381    162607.34    72.198462    72.198462    36.020822          120    14930.346    18525.146   -34510.589   -728.99276   -3862.4339   -2254.9124    72.198462    62.525703    36.020822    -351.6988   -312281.55 
   99550    25.024105    162606.15    72.198286    72.198286    36.020735          120    15066.064    18561.584   -34399.669   -767.87442   -3829.6432    -2347.205    72.198286     62.52555    36.020735   -257.34037   -312282.37 
   99560       24.868    162603.47    72.197888    72.197889    36.020536          120    15214.099    18605.276    -34002.88     -802.517   -3825.8844    -2174.293    72.197888    62.525206    36.020536   -61.168405   -312281.87 
   99570    24.686847    162600.31     72.19742    72.197421    36.020303          120    15323.385    18569.889   -34010.937   -732.77588   -3729.3047   -2142.2499     72.19742    62.524801    36.020303   -39.221034   -312281.54 
   99580     24.98463    162596.98    72.196928    72.196929    36.020057          120    15314.788      18712.2    -33870.68   -619.81401   -3846.0634   -2326.4146    72.196928    62.524375    36.020057    52.102712   -312282.41 
   99590    25.059027    162593.88    72.196469     72.19647    36.019828          120    15359.676    18743.939   -34211.063    -594.9036   -3891.7947   -2208.8919    72.196469    62.523977    36.019828   -35.815899    -312282.2 
   99600    24.866832    162590.61    72.195985    72.195986    36.019587          120    15185.757    18811.385    -34251.67   -569.20327   -3889.4646     -2206.59    72.195985    62.523558    36.019587   -84.842379   -312281.85 
   99610    25.201135    162586.87    72.195432    72.195432    36.019311          120    14971.356    18970.192   -34059.761   -556.98497   -3861.2202   -2175.5032    72.195432    62.523078    36.019311   -39.404372   -312282.17 
   99620    24.914336    162582.99    72.194857    72.194858    36.019024          120     15278.32    19036.281    -33879.18   -577.32352   -3594.0908    -2217.612    72.194857    62.522581    36.019024     145.1403   -312281.54 
   99630    24.886769    162579.91    72.194401    72.194402    36.018797          120    15471.886     18900.38   -33942.615   -606.12562   -3642.0778   -2271.1458    72.194401    62.522186    36.018797    143.21668   -312281.57 
   99640      25.0708    162577.62    72.194063    72.194063    36.018628          120    15161.155    18600.968   -33944.759   -631.42597   -3698.2776   -2151.5657    72.194063    62.521893    36.018628   -60.878972   -312281.65 
   99650    25.012252    162575.03    72.193679     72.19368    36.018436          120    14981.683    18665.374   -34208.608   -765.29946   -3642.6715   -2083.2304    72.193679    62.521561    36.018436   -187.18398   -312281.65 
   99660    24.981233    162571.37    72.193137    72.193138    36.018166          120     15275.79    18651.803     -34466.7   -850.67999   -3776.5066   -2047.1605    72.193137    62.521092    36.018166    -179.7025   -312281.75 
   99670    25.155601    162566.74    72.192452    72.192452    36.017824          120    15334.338    18772.075   -34130.958   -881.79894   -3629.9625   -2142.7338    72.192452    62.520498    36.017824    -8.181735   -312282.05 
   99680     25.13948    162561.99    72.191749     72.19175    36.017473          120    15252.282    18880.966   -34038.252   -943.65362    -3726.452   -2410.7983    72.191749    62.519889    36.017473    31.665235   -312281.77 
   99690    25.132364    162557.55    72.191092    72.191092    36.017145          120    15477.738    18924.072   -33946.014   -865.92013   -3865.0582   -2518.4456    72.191092     62.51932    36.017145    151.93217   -312281.76 
   99700    24.961597    162553.96     72.19056    72.190561     36.01688          120    15477.989    18896.953    -34088.02   -785.39946   -3979.0008   -2462.4858     72.19056     62.51886     36.01688    95.640541   -312281.63 
   99710    25.161412    162551.04    72.190127    72.190128    36.016664          120    15403.776    18864.509    -33993.12   -755.05038   -4153.1911   -2473.1773    72.190127    62.518485    36.016664    91.721646    -312282.1 
   99720     25.12808    162548.81    72.189798    72.189798      36.0165          120    15423.119    19142.223   -33727.595   -598.60993   -4085.4252   -2367.9587    72.189798    62.518199      36.0165    279.24918   -312282.11 
   99730    25.204335    162548.27    72.189718    72.189719     36.01646          120     15558.56    19185.562   -33548.763   -462.12218   -3748.2016   -2320.2268    72.189718     62.51813     36.01646    398.45305   -312281.93 
   99740    24.769328     162550.1    72.189989     72.18999    36.016595          120    15539.027    19269.618   -33692.076   -513.41325   -3539.9002   -2314.8593    72.189989    62.518365    36.016595    372.18964   -312280.93 
   99750    25.294965    162554.16     72.19059    72.190591    36.016895          120    15634.156    19145.251    -33906.58    -548.5838   -3599.2925   -2311.2647     72.19059    62.518886    36.016895    290.94215    -312281.9 
   99760    25.144328       162560    72.191454    72.191455    36.017326          120    15735.542    18948.442   -33909.341   -598.02783   -3724.6463   -2197.8985    72.191454    62.519634    36.017326    258.21417   -312281.63 
   99770    25.019002     162567.4     72.19255    72.192551    36.017873          120    15606.701    18998.223   -33746.371   -728.60907   -3683.7723    -2285.548     72.19255    62.520583    36.017873     286.1843   -312281.46 
   99780    25.018995    162576.47    72.193892    72.193893    36.018543          120    15382.714    19055.252   -33624.361   -446.53159   -3849.5673   -2237.6943    72.193892    62.521745    36.018543    271.20165   -312281.21 
   99790    25.241167    162587.09    72.195465    72.195465    36.019327          120    15229.793    19049.091   -33646.927   -486.85855   -3805.2715   -2361.0809    72.195465    62.523107    36.019327    210.65216   -312281.85 
   99800    25.087687    162598.91    72.197214    72.197215      36.0202          120    15271.914    18767.517   -33815.037   -531.68348   -3742.6123   -2616.9057    72.197214    62.524622      36.0202    74.797894    -312281.3 
   99810     25.25703    162610.93    72.198993    72.198994    36.021088          120    14905.065    18408.751   -34276.511    -461.3416   -3894.6057   -2504.2726    72.198993    62.526163    36.021088   -320.89844   -312281.79 
   99820    25.122733    162621.04    72.200489    72.200489    36.021834          120     14814.93     18178.23   -34466.295   -582.54021   -3986.4388   -2332.7208    72.200489    62.527458    36.021834   -491.04466    -312281.3 
   99830    24.831037    162628.08    72.201531    72.201531    36.022354          120    14852.539    18307.682   -34795.109   -669.31686   -3893.3377   -2462.4323    72.201531     62.52836    36.022354   -544.96263   -312280.59 
   99840    25.190222    162631.81    72.202083    72.202083    36.022629          120    14887.453    18512.388   -34650.923   -596.73252   -3714.7943   -2375.3438    72.202083    62.528839    36.022629    -417.0272   -312281.14 
   99850    25.255201    162632.89    72.202243    72.202243    36.022709          120    15058.865    18379.265   -34450.403   -587.48975   -3673.3327   -2420.9425    72.202243    62.528977    36.022709   -337.42425   -312281.37 
   99860    25.054535    162631.83    72.202085    72.202086     36.02263          120    14911.691    18395.833   -34360.937   -562.89922   -3796.0513   -2359.3425    72.202085    62.528841     36.02263   -351.13762      -312281 
   99870    25.087682    162628.61    72.201609     72.20161    36.022393          120    14687.264    18628.351   -34245.677   -488.41637   -3823.1124    -2097.215    72.201609    62.528428    36.022393   -310.02045   -312281.39 
   99880    25.078018    162623.56    72.200862    72.200863     36.02202          120    14908.149     18652.63   -34079.171   -702.60357   -3816.5735   -2054.5571    72.200862    62.527781     36.02202   -172.79759   -312281.46 
   99890    25.067462    162617.47    72.199961    72.199961     36.02157          120    15326.582    18504.967   -34068.603   -750.42243   -3951.7491   -2214.0217    72.199961    62.527001     36.02157   -79.017975   -312281.37 
   99900    25.096275    162610.91    72.198989     72.19899    36.021086          120    15213.103    18686.054   -33997.473   -642.82229   -4097.0172   -2500.4611    72.198989    62.526159    36.021086   -32.772325   -312281.32 
   99910    25.019334     162604.1    72.197982    72.197982    36.020583          120    14979.051    18652.778   -33967.313   -741.49797   -4054.4095    -2360.051    72.197982    62.525287    36.020583   -111.82793   -312281.32 
   99920     25.07844    162596.69    72.196885    72.196886    36.020036          120    14870.457    18713.218   -34017.835   -704.28141   -3969.4535   -2319.6763    72.196885    62.524337    36.020036   -144.72005   -312281.52 
   99930    25.094703    162588.44    72.195664    72.195665    36.019427          120     14739.72    19005.401   -34254.355   -720.10642   -3887.5226   -2073.4669    72.195664     62.52328    36.019427   -169.74473   -312281.67 
   99940    24.980361    162579.28    72.194309    72.194309     36.01875          120    15142.311    19023.129   -34322.245   -730.36497   -3887.2168   -2112.6589    72.194309    62.522106     36.01875   -52.268304   -312281.36 
   99950    24.810632    162569.95    72.192927    72.192928    36.018061          120    15523.462    18889.441   -33764.322   -641.83898   -3817.9722   -2388.4995    72.192927     62.52091    36.018061    216.19333   -312281.33 
   99960    24.954998    162561.92    72.191738    72.191738    36.017468          120    15624.102    18950.288   -33451.613   -583.88825   -3680.7118   -2357.5429    72.191738     62.51988    36.017468    374.25887   -312281.81 
   99970    24.848782    162556.22    72.190895    72.190896    36.017047          120    15699.111    19132.664   -33416.964   -704.62331        -3646   -2320.1534    72.190895     62.51915    36.017047    471.60387   -312281.94 
   99980    24.973924    162553.31    72.190464    72.190465    36.016832          120    15446.585    19178.739   -33676.188   -662.12399   -3888.3405   -2295.2975    72.190464    62.518776    36.016832    316.37869   -312282.11 
   99990    25.071838    162552.48    72.190341    72.190342    36.016771          120    15377.959    19236.668   -33690.741   -633.90713   -3843.7597   -2310.1275    72.190341     62.51867    36.016771    307.96181   -312282.16 
  100000    24.841588    162553.47    72.190488    72.190489    36.016844          120    15430.977    19160.965   -33959.257   -911.32609   -3590.2507   -2395.3848    72.190488    62.518797    36.016844    210.89477   -312281.98 
Loop time of 34879.9 on 1 procs for 100000 steps with 14848 atoms

Performance: 0.248 ns/day, 96.889 hours/ns, 2.867 timesteps/s
100.0% CPU use with 1 MPI tasks x no OpenMP threads

MPI task timing breakdown:
Section |  min time  |  avg time  |  max time  |%varavg| %total
---------------------------------------------------------------
Pair    | 31765      | 31765      | 31765      |   0.0 | 91.07
Bond    | 0.055432   | 0.055432   | 0.055432   |   0.0 |  0.00
Kspace  | 1478.4     | 1478.4     | 1478.4     |   0.0 |  4.24
Neigh   | 776.25     | 776.25     | 776.25     |   0.0 |  2.23
Comm    | 37.549     | 37.549     | 37.549     |   0.0 |  0.11
Output  | 1.7004     | 1.7004     | 1.7004     |   0.0 |  0.00
Modify  | 804.55     | 804.55     | 804.55     |   0.0 |  2.31
Other   |            | 16.12      |            |       |  0.05

Nlocal:    14848 ave 14848 max 14848 min
Histogram: 1 0 0 0 0 0 0 0 0 0
Nghost:    46885 ave 46885 max 46885 min
Histogram: 1 0 0 0 0 0 0 0 0 0
Neighs:    1.01246e+07 ave 1.01246e+07 max 1.01246e+07 min
Histogram: 1 0 0 0 0 0 0 0 0 0

Total # of neighbors = 10124594
Ave neighs/atom = 681.883
Ave special neighs/atom = 0
Neighbor list builds = 2296
Dangerous builds = 0
 
All done!
Total wall time: 9:47:50
