LAMMPS (16 Mar 2018)
Reading data file ...
  triclinic box = (0 0 0) to (9.208 7.97436 18.376) with tilt (-4.604 0 0)
  1 by 1 by 1 MPI processor grid
  reading atoms ...
  116 atoms
Finding 1-2 1-3 1-4 neighbors ...
  special bond factors lj:   0          0          0         
  special bond factors coul: 0          0          0         
  0 = max # of 1-2 neighbors
  0 = max # of 1-3 neighbors
  0 = max # of 1-4 neighbors
  1 = max # of special neighbors
Replicating atoms ...
  triclinic box = (0 0 0) to (73.664 63.7949 36.752) with tilt (-36.832 0 0)
  1 by 1 by 1 MPI processor grid
  14848 atoms
Finding 1-2 1-3 1-4 neighbors ...
  special bond factors lj:   0          0          0         
  special bond factors coul: 0          0          0         
  0 = max # of 1-2 neighbors
  0 = max # of 1-3 neighbors
  0 = max # of 1-4 neighbors
  1 = max # of special neighbors
  Time spent = 0.00280714 secs
PPPM initialization ...
WARNING: System is not charge neutral, net charge = -0.2048 (../kspace.cpp:302)
  using 12-bit tables for long-range coulomb (../kspace.cpp:321)
  G vector (1/distance) = 0.201681
  grid = 36 50 24
  stencil order = 5
  estimated absolute RMS force accuracy = 0.00105653
  estimated relative force accuracy = 7.33721e-05
  using double precision FFTs
  3d grid and FFT values/proc = 65395 43200
Neighbor list info ...
  update every 1 steps, delay 0 steps, check yes
  max neighbors/atom: 2000, page size: 100000
  master list distance cutoff = 15.3
  ghost atom cutoff = 15.3
  binsize = 7.65, bins = 15 9 5
  3 neighbor lists, perpetual/occasional/extra = 3 0 0
  (1) pair morse, perpetual
      attributes: half, newton on
      pair build: half/bin/newton/tri
      stencil: half/bin/3d/newton/tri
      bin: standard
  (2) pair buck, perpetual, copy from (1)
      attributes: half, newton on
      pair build: copy
      stencil: none
      bin: none
  (3) pair lj/cut/coul/long, perpetual, copy from (1)
      attributes: half, newton on
      pair build: copy
      stencil: none
      bin: none
Setting up Verlet run ...
  Unit style    : metal
  Current step  : 0
  Time step     : 0.001
Per MPI rank memory allocation (min/avg/max) = 145.7 | 145.7 | 145.7 Mbytes
Step Temp Volume Cella Cellb Cellc CellGamma Pxx Pyy Pzz Pxy Pxz Pyz Lx Ly Lz Press PotEng 
       0          325    172711.88       73.664    73.664001       36.752          120      -207636   -207689.08   -278668.78    26.889682   -8.2663968    11.052499       73.664    63.794896       36.752   -231331.29   -309191.56 
      10     371.8598    172650.04    73.655208    73.655208    36.747613          120   -208753.65   -208839.26    -255866.7    122.63476   -26.224732   -184.68077    73.655208    63.787282    36.747613   -224486.53   -309311.08 
      20    644.09878    172468.62    73.629399    73.629399    36.734737          120   -204777.15    -204418.8   -196109.17    34.287652    -267.9104   -405.55175    73.629399     63.76493    36.734737   -201768.37   -309869.85 
      30    663.02585    172182.33    73.588636    73.588636      36.7144          120   -175577.25   -175210.02    -116780.8    -199.9134   -838.39012   -470.17034    73.588636    63.729629      36.7144   -155856.02   -309960.32 
      40     445.6098    171821.16    73.537147    73.537148    36.688711          120   -128540.36   -128800.18   -36862.105   -707.17659   -1151.9547   -500.64081    73.537147    63.685038    36.688711   -98067.548    -309579.8 
      50    534.53307    171424.08    73.480455    73.480456    36.660427          120   -88262.306   -88956.089   -5956.0942   -680.96939   -1173.6343   -629.98742    73.480455    63.635942    36.660427   -61058.163   -309772.84 
      60    824.52264    171021.42    73.422876    73.422877      36.6317          120   -66324.596   -66161.633   -45410.424   -723.03604   -2025.1877   -462.91175    73.422876    63.586077      36.6317   -59298.884   -310358.17 
      70     991.9118    170625.84    73.366224    73.366224    36.603435          120   -52960.161   -52869.433   -108806.07   -1720.9385   -2437.2728   -560.89934    73.366224    63.537014    36.603435    -71545.22   -310736.08 
      80    856.48828    170240.44    73.310943    73.310944    36.575855          120   -45474.096   -46504.786   -154843.32   -1800.0965   -2808.4981    49.547877    73.310943     63.48914    36.575855   -82274.068   -310540.14 
      90    595.45234    169866.73     73.25726     73.25726    36.549072          120   -40600.089   -41347.377   -168930.29   -2023.3224   -3255.1018   -518.26846     73.25726    63.442649    36.549072   -83625.918   -310090.73 
     100    610.81719    169508.69    73.205754    73.205755    36.523375          120   -25083.974   -25315.908   -148423.79   -1782.5094   -2989.2475   -907.87749    73.205754    63.398044    36.523375   -66274.558   -310161.31 
     110    780.21089    169175.21    73.157716    73.157717    36.499408          120   -5246.3936   -5643.3548   -106339.54   -1849.9261   -1835.3406   -1108.4888    73.157716    63.356441    36.499408   -39076.429   -310532.72 
     120    791.63789    168875.54    73.114493    73.114494    36.477843          120     5711.481    5646.0907   -56876.797   -1808.9103   -1241.6324    -1462.123    73.114493    63.319009    36.477843   -15173.075    -310605.2 
     130      691.502    168613.86     73.07671    73.076711    36.458993          120    4754.2616    5931.0593   -18084.347    -1690.607   -1159.5796    -1485.857     73.07671    63.286288    36.458993   -2466.3422   -310457.43 
     140    641.54528    168387.77    73.044032    73.044033    36.442689          120    295.38888    134.88096   -5261.2068    -1166.832   -987.77443   -1341.8473    73.044032    63.257988    36.442689   -1610.3123   -310398.12 
     150    688.46327     168189.6    73.015367    73.015367    36.428388          120   -7642.6071   -6617.0619   -26356.526   -1860.3736   -734.48816   -767.87474    73.015367    63.233163    36.428388   -13538.732   -310525.37 
     160     749.6656    168007.65    72.989029    72.989029    36.415247          120   -17718.098   -16368.199   -61032.648   -1591.2411   -1203.0682   -885.99953    72.989029    63.210354    36.415247   -31706.315   -310689.13 
     170    738.18297    167829.62    72.963238    72.963238     36.40238          120   -22672.847   -20693.847   -91368.642     -819.974   -2160.7956   -1127.8934    72.963238    63.188018     36.40238   -44911.779   -310718.16 
     180    665.22784    167647.17    72.936789    72.936789    36.389184          120   -20342.748   -18263.562   -109438.91   -851.08487   -2514.6821   -1387.7388    72.936789    63.165112    36.389184   -49348.407   -310627.23 
     190    636.67045     167457.3    72.909243    72.909243    36.375441          120   -16002.577    -14303.56    -109058.8   -238.42349   -2176.0005   -1445.2992    72.909243    63.141257    36.375441   -46454.981   -310616.08 
     200    671.10352    167261.24    72.880778    72.880778     36.36124          120   -11512.036   -10819.734    -90804.72   -726.04318   -2052.1707   -1331.6379    72.880778    63.116606     36.36124   -37712.163   -310726.15 
     210     681.6731    167063.16    72.851996    72.851997     36.34688          120    -6705.787   -6131.6692   -67911.076   -1005.3289   -1652.9208    -1124.932    72.851996     63.09168     36.34688   -26916.177   -310791.46 
     220    661.95589     166868.1    72.823633    72.823633    36.332729          120   -3476.3559   -2168.2006   -49160.327   -989.77664   -1173.8052   -2235.4173    72.823633    63.067117    36.332729   -18268.295   -310796.83 
     230    640.69812    166679.83    72.796233    72.796234    36.319059          120   -3297.7197   -2297.9871   -40948.131   -548.34002   -801.59105    -2933.004    72.796233    63.043388    36.319059   -15514.613   -310797.23 
     240     638.2862    166499.19    72.769927    72.769927    36.305934          120   -5597.5285   -4311.1317   -44041.884   -204.54737   -1657.5698   -2731.5571    72.769927    63.020606    36.305934   -17983.515   -310832.83 
     250    649.09237    166324.53    72.744472    72.744473    36.293235          120   -7892.2831   -7566.9665    -56842.76     267.8896   -1980.8078   -2788.7432    72.744472    62.998562    36.293235    -24100.67   -310896.68 
     260    648.87059    166152.72    72.719416    72.719416    36.280734          120   -9052.9267   -9957.1758   -71285.318    686.67946   -1620.0865   -3018.4598    72.719416    62.976862    36.280734   -30098.474   -310940.13 
     270    627.80901    165980.99    72.694353    72.694354     36.26823          120   -8421.5911   -9614.3818   -79561.503    192.44031   -1511.1213   -2286.7984    72.694353    62.955157     36.26823   -32532.492   -310943.23 
     280    606.09849    165808.43    72.669153    72.669154    36.255657          120   -6834.6528   -6551.5035   -79575.152     137.5616    -1065.309   -1446.8239    72.669153    62.933334    36.255657   -30987.103   -310942.91 
     290    607.39001    165636.19    72.643981    72.643981    36.243098          120   -3441.4375   -1840.7886   -71114.775    733.24214   -942.80426   -1417.3002    72.643981    62.911533    36.243098   -25465.667   -310985.45 
     300    607.01889    165467.03    72.619243    72.619243    36.230756          120    829.41869    2145.2209   -59130.955    717.12021   -768.33974   -1460.4046    72.619243     62.89011    36.230756   -18718.772      -311024 
     310    598.37709    165304.06    72.595395    72.595395    36.218858          120    3681.0594    4512.7133   -46700.915    1038.2871   -211.95125   -1754.6012    72.595395    62.869457    36.218858   -12835.714   -311045.45 
     320    586.12385    165149.65    72.572783    72.572784    36.207577          120    5222.3352    5519.9659    -37776.47    1467.3732   -852.97986   -2048.5362    72.572783    62.849875    36.207577   -9011.3897    -311058.5 
     330    579.00602    165004.84    72.551566    72.551567    36.196991          120    4835.7496    4675.5717   -36551.324    500.04492   -661.99863   -1599.6119    72.551566      62.8315    36.196991   -9013.3342   -311080.74 
     340    576.66373    164868.84    72.531628    72.531628    36.187044          120    2497.6386    4039.8593   -43296.985    274.62728   -512.02592   -1308.0465    72.531628    62.814233    36.187044   -12253.162   -311111.89 
     350    570.28308    164739.41    72.512643    72.512643    36.177572          120    1923.0641     2760.803   -53660.941    384.40984     189.0652   -1658.1077    72.512643    62.797791    36.177572   -16325.691   -311135.18 
     360    551.19403    164614.14    72.494258    72.494259    36.168399          120    2657.5398    3685.5077   -61260.481   -220.42002    420.83318    -1478.993    72.494258     62.78187    36.168399   -18305.811   -311132.53 
     370    542.93693    164491.69    72.476278    72.476278    36.159429          120    4071.9618    5051.3134   -62226.182   -600.08099    -599.4515   -1753.1883    72.476278    62.766298    36.159429   -17700.969   -311149.87 
     380     539.0554    164372.05    72.458702    72.458703     36.15066          120    6094.6063    7424.9836    -57893.81   -1366.0261   -1025.6216    -1867.493    72.458702    62.751078     36.15066   -14791.407   -311175.45 
     390    537.01567    164256.18    72.441673    72.441674    36.142164          120    8183.2995    9132.6984   -50020.257   -1603.1139   -1031.2265   -1743.7251    72.441673     62.73633    36.142164    -10901.42    -311203.5 
     400    527.19437    164145.54    72.425404    72.425405    36.134047          120    11480.264    11799.827   -40623.218   -893.72668   -1241.0835   -1027.5383    72.425404     62.72224    36.134047   -5781.0425   -311215.49 
     410    521.69593    164041.81    72.410144    72.410145    36.126434          120    12063.613    14226.078   -34737.378   -578.24008   -1212.5008   -1621.3491    72.410144    62.709025    36.126434   -2815.8955   -311235.18 
     420    520.89288    163945.64    72.395991    72.395992    36.119373          120     11322.97    13974.662   -33160.036   -27.489632   -450.73754   -1736.3589    72.395991    62.696768    36.119373   -2620.8014   -311263.66 
     430    514.12398    163856.36    72.382847    72.382847    36.112815          120    10766.986     12073.37   -37184.113    233.18005   -713.75632   -655.82922    72.382847    62.685385    36.112815   -4781.2524   -311279.74 
     440    508.30786    163772.33    72.370472    72.370472    36.106641          120    10511.438    10370.347   -43097.657    -131.7165   -673.14956   -524.12207    72.370472    62.674668    36.106641   -7405.2906   -311297.39 
     450    499.55498    163691.84    72.358614    72.358615    36.100725          120    11096.759    9891.9643   -47899.036    202.67678    16.494756   -1234.6935    72.358614    62.664399    36.100725   -8970.1041   -311308.77 
     460     491.5848    163613.81    72.347114    72.347115    36.094987          120    12266.094    11121.847     -49250.7     746.7327    902.78279   -398.75308    72.347114     62.65444    36.094987   -8620.9194   -311320.48 
     470    485.10712    163538.13    72.335957    72.335958    36.089421          120    14194.738    13739.543   -46460.654    880.51337    1258.2417   -333.98312    72.335957    62.644777    36.089421   -6175.4577   -311334.31 
     480    481.29663    163465.54    72.325254    72.325254    36.084081          120    15602.645    15040.343   -41976.832    871.48832    540.43568    736.78914    72.325254    62.635508    36.084081   -3777.9482   -311352.95 
     490    476.06722    163396.86    72.315123    72.315124    36.079026          120    16231.417    16445.948   -36394.447    973.24344    52.951576    707.23221    72.315123    62.626734    36.079026   -1239.0276   -311368.27 
     500    469.52582    163332.83    72.305675    72.305676    36.074313          120    17139.141    17321.583   -32713.788    124.97765    759.33941     440.4782    72.305675    62.618552    36.074313     582.3122   -311380.42 
     510    464.46375    163273.85    72.296971    72.296972     36.06997          120    17977.292    17312.618   -31140.132   -397.62533     1795.084    1063.0896    72.296971    62.611015     36.06997    1383.2593   -311394.31 
     520    461.83806    163219.82    72.288995    72.288996    36.065991          120    17804.312    17069.242   -33369.761   -527.58432    1231.7205    532.44994    72.288995    62.604107    36.065991    501.26442   -311412.99 
     530    455.09318    163169.92    72.281629    72.281629    36.062316          120    17920.915     16445.26   -37171.927    -704.0638   -33.179194    541.05515    72.281629    62.597727    36.062316   -935.25055   -311422.74 
     540    449.88243    163123.18    72.274727    72.274727    36.058872          120    18368.148     16970.56   -40442.406   -245.80117   -195.85231    479.44496    72.274727     62.59175    36.058872   -1701.2323   -311435.19 
     550    440.47382    163078.97    72.268196    72.268197    36.055614          120     19225.26    17548.234   -41750.603   -158.78618    583.48123    17.664067    72.268196    62.586094    36.055614   -1659.0365   -311438.93 
     560    435.37763    163037.07    72.262007    72.262008    36.052526          120    18156.063     19340.01   -39757.364   -476.80557    1418.4804    940.42428    72.262007    62.580734    36.052526   -753.76383   -311450.44 
     570    434.34076     162997.7    72.256189     72.25619    36.049623          120    19160.358    19973.415   -36530.895   -730.16281    1198.5667    1682.7038    72.256189    62.575696    36.049623    867.62627   -311469.71 
     580    429.00445     162961.4    72.250825    72.250826    36.046947          120    20911.857    20986.321    -32627.49   -821.78579    1306.6373    1343.8895    72.250825    62.571051    36.046947    3090.2295   -311479.95 
     590    422.15718    162928.88    72.246019     72.24602     36.04455          120    20951.798    22035.841   -30244.804   -277.08702    1364.4493    1336.8735    72.246019    62.566889     36.04455    4247.6116   -311486.96 
     600     417.2293    162900.42    72.241812    72.241813    36.042451          120    21178.515    21958.784   -29789.628   -85.729922    1927.0638    1516.5983    72.241812    62.563245    36.042451    4449.2237   -311496.19 
     610    415.73066    162875.79    72.238171    72.238171    36.040634          120    21729.951    20904.609   -31941.826   -136.47196    1723.7003    631.91832    72.238171    62.560092    36.040634    3564.2444   -311511.97 
     620    414.00782    162854.38    72.235005    72.235005    36.039054          120    21955.765    21343.603   -34619.222   -292.05166    1953.2079    670.81521    72.235005     62.55735    36.039054    2893.3823   -311527.55 
     630    410.49189    162835.61    72.232229     72.23223     36.03767          120    20940.051    21077.749   -36827.708   -903.72674    1571.0578    919.92132    72.232229    62.554946     36.03767    1730.0306   -311539.37 
     640    407.75443    162818.82    72.229747    72.229747    36.036431          120    21125.564    20622.179   -37302.076    -695.2675    1054.3873    350.60971    72.229747    62.552796    36.036431    1481.8889   -311552.23 
     650    398.59718    162803.78    72.227523    72.227523    36.035321          120     22211.06     21791.12   -36458.214   -462.80777    362.17753    411.86998    72.227523     62.55087    36.035321    2514.6554   -311552.13 
     660    395.55068     162790.8    72.225604    72.225604    36.034364          120     22934.15    21905.246   -33987.053    361.92279    529.63293   -199.66722    72.225604    62.549208    36.034364    3617.4478   -311563.04 
     670    392.77541    162780.28    72.224048    72.224049    36.033588          120    23949.209     22011.37   -31225.416    726.57623    770.03288   -302.31694    72.224048    62.547861    36.033588    4911.7211    -311574.3 
     680    385.85411    162772.63    72.222917    72.222917    36.033023          120    23532.679     22623.44   -29800.229     269.8346    538.26014    314.40905    72.222917    62.546881    36.033023    5451.9633   -311576.62 
     690    387.11416    162767.88    72.222213    72.222214    36.032672          120    22267.554    22589.007   -31124.861     196.5391    1054.1621    5.3260455    72.222213    62.546272    36.032672    4577.2335   -311595.09 
     700    381.35812     162765.5    72.221862    72.221863    36.032497          120    21143.711    22477.257    -33126.06    23.062185     1165.331   -29.930385    72.221862    62.545968    36.032497    3498.3026   -311599.17 
     710    379.29723    162764.85    72.221765    72.221766    36.032449          120    19523.271    21303.675   -35506.718     68.38655    457.94419    90.992005    72.221765    62.545884    36.032449    1773.4095   -311609.82 
     720    375.59287    162765.09    72.221802    72.221802    36.032467          120    20078.501    20191.679   -36600.386   -73.682682    249.92481    220.77578    72.221802    62.545916    36.032467    1223.2646   -311616.88 
     730    374.71493    162765.94    72.221927    72.221928     36.03253          120    20718.812    20751.834   -35891.513    405.20204   -36.635071    136.97359    72.221927    62.546024     36.03253    1859.7109   -311629.42 
     740    369.81339    162767.62    72.222175    72.222175    36.032653          120    20868.186    21366.685   -34205.629    242.17107    509.49006   -1.2058324    72.222175    62.546239    36.032653    2676.4141   -311633.55 
     750     366.4644    162770.43    72.222592    72.222592    36.032861          120     21165.75      21792.5   -32848.846     129.2849    824.29849    49.349218    72.222592      62.5466    36.032861    3369.8012   -311640.72 
     760    362.11331    162774.65    72.223216    72.223216    36.033173          120    21743.891    21433.972   -32074.027   -171.45368    619.31008    188.13263    72.223216     62.54714    36.033173    3701.2786    -311644.8 
     770    360.17882    162780.36     72.22406    72.224061    36.033594          120    21188.926    21452.264   -31815.741    235.75137    540.77763    499.55419     72.22406    62.547871    36.033594    3608.4831   -311653.09 
     780    361.71407    162787.46    72.225109     72.22511    36.034117          120    21172.733     21549.85   -32046.894    351.86617    745.66706    595.51689    72.225109     62.54878    36.034117    3558.5631   -311668.28 
     790    355.89159    162795.87    72.226353    72.226353    36.034738          120    21997.235     21688.95   -31990.024   -169.07183    972.07361    634.85347    72.226353    62.549857    36.034738    3898.7205   -311669.16 
     800    351.02192    162805.63    72.227796    72.227797    36.035458          120    21505.578     21814.63    -33347.55    744.44374    621.47512    1094.9893    72.227796    62.551107    36.035458    3324.2193    -311671.2 
     810     347.9957    162816.44    72.229395    72.229396    36.036256          120    21080.145    21245.153   -34642.421     246.0977    645.19087    902.91315    72.229395    62.552492    36.036256    2560.9588   -311676.69 
     820    348.38105    162827.95    72.231097    72.231097    36.037105          120    21420.563    21264.311    -34896.05   -78.935512    986.50523    421.43784    72.231097    62.553965    36.037105    2596.2748   -311687.72 
     830    347.14664    162840.14    72.232899      72.2329    36.038004          120    22446.544    21415.237   -34309.479    -99.94421    1387.7796   -458.31345    72.232899    62.555526    36.038004    3184.1006   -311695.42 
     840    344.18127    162853.22    72.234834    72.234835    36.038969          120    22219.575    21274.802   -32940.766     3.334166    1288.5196   -576.04272    72.234834    62.557202    36.038969    3517.8702   -311699.56 
     850    341.11518    162867.31    72.236917    72.236918    36.040008          120    21120.326    21510.539   -32348.442    492.80576    432.66552   -406.44451    72.236917    62.559006    36.040008    3427.4744   -311703.38 
     860     338.3944    162882.31    72.239135    72.239136    36.041115          120     21056.65    20990.952   -32678.336    172.68641    717.52992    319.92102    72.239135    62.560927    36.041115    3123.0887   -311708.14 
     870    334.94467    162898.07    72.241464    72.241465    36.042277          120    20841.336    20498.779   -32987.821   -71.171007     1329.933    1056.2143    72.241464    62.562944    36.042277    2784.0978   -311710.54 
     880    331.76554    162914.35    72.243871    72.243872    36.043478          120     20104.46    19710.067   -34350.829   -202.36423    702.33722    1596.0338    72.243871    62.565028    36.043478    1821.2326   -311713.08 
     890     328.6539    162930.76    72.246296    72.246297    36.044688          120     19643.05    20209.108   -35597.079   -260.17547    336.85033    1133.1236    72.246296    62.567129    36.044688    1418.3597   -311714.96 
     900    325.87093    162947.14    72.248717    72.248718    36.045896          120    20407.656    21193.099   -35438.179    2.8801914   -161.86202    509.04388    72.248717    62.569225    36.045896    2054.1916   -311717.22 
     910    325.67451    162963.71    72.251166    72.251166    36.047117          120    21064.685    21043.667   -35073.389    212.35178     468.2753    754.16577    72.251166    62.571346    36.047117    2344.9878   -311723.67 
     920    325.76153    162980.61    72.253663    72.253664    36.048363          120    21031.333    21010.204   -35235.909    295.80069    1221.1633    803.97414    72.253663    62.573509    36.048363     2268.543   -311730.52 
     930    324.67759    162997.81    72.256205    72.256206    36.049632          120    21600.289    20342.189   -35417.936     347.8878    1772.9028    951.20595    72.256205     62.57571    36.049632    2174.8473   -311735.72 
     940    324.44675    163015.22    72.258779    72.258779    36.050915          120    20443.665    19519.133   -35193.111    169.87033    1465.4683    1177.2489    72.258779    62.577939    36.050915    1589.8957   -311740.97 
     950    322.14774    163032.63     72.26135     72.26135    36.052198          120    20517.868    19025.843    -35470.69    194.41189    1063.6836    1241.2849     72.26135    62.580165    36.052198    1357.6736   -311742.89 
     960    320.98244    163049.91    72.263904    72.263904    36.053472          120    20291.094    19430.911   -36097.277    596.76298    1579.0974    1023.2424    72.263904    62.582377    36.053472    1208.2427   -311746.17 
     970    318.10492       163067    72.266428    72.266429    36.054732          120    20236.724    18806.698   -36529.383    325.60922    1716.1947    1527.1448    72.266428    62.584563    36.054732    838.01338    -311745.4 
     980    318.83302    163083.74      72.2689    72.268901    36.055965          120    20342.103    18533.672    -36989.76    9.6021572    1537.6254    1754.0637      72.2689    62.586704    36.055965     628.6715   -311750.98 
     990    320.88975    163100.04    72.271309     72.27131    36.057167          120     20311.14    18617.368   -37514.587   -139.73102    979.23453    1158.5914    72.271309     62.58879    36.057167    471.30692   -311759.39 
    1000    317.80759    163115.89    72.273649    72.273649    36.058334          120    20296.273    18862.111   -37763.422   -454.66047    905.72196    891.84973    72.273649    62.590817    36.058334    464.98732   -311757.79 
Loop time of 329.996 on 1 procs for 1000 steps with 14848 atoms

Performance: 0.262 ns/day, 91.666 hours/ns, 3.030 timesteps/s
99.7% CPU use with 1 MPI tasks x no OpenMP threads

MPI task timing breakdown:
Section |  min time  |  avg time  |  max time  |%varavg| %total
---------------------------------------------------------------
Pair    | 259.14     | 259.14     | 259.14     |   0.0 | 78.53
Bond    | 0.00022221 | 0.00022221 | 0.00022221 |   0.0 |  0.00
Kspace  | 11.813     | 11.813     | 11.813     |   0.0 |  3.58
Neigh   | 51.844     | 51.844     | 51.844     |   0.0 | 15.71
Comm    | 0.45312    | 0.45312    | 0.45312    |   0.0 |  0.14
Output  | 0.011067   | 0.011067   | 0.011067   |   0.0 |  0.00
Modify  | 6.6194     | 6.6194     | 6.6194     |   0.0 |  2.01
Other   |            | 0.1131     |            |       |  0.03

Nlocal:    14848 ave 14848 max 14848 min
Histogram: 1 0 0 0 0 0 0 0 0 0
Nghost:    46826 ave 46826 max 46826 min
Histogram: 1 0 0 0 0 0 0 0 0 0
Neighs:    1.00899e+07 ave 1.00899e+07 max 1.00899e+07 min
Histogram: 1 0 0 0 0 0 0 0 0 0

Total # of neighbors = 10089941
Ave neighs/atom = 679.549
Ave special neighs/atom = 0
Neighbor list builds = 176
Dangerous builds = 0
PPPM initialization ...
  using 12-bit tables for long-range coulomb (../kspace.cpp:321)
  G vector (1/distance) = 0.202616
  grid = 36 50 24
  stencil order = 5
  estimated absolute RMS force accuracy = 0.000996962
  estimated relative force accuracy = 6.92352e-05
  using double precision FFTs
  3d grid and FFT values/proc = 65395 43200
Setting up Verlet run ...
  Unit style    : metal
  Current step  : 0
  Time step     : 0.001
Per MPI rank memory allocation (min/avg/max) = 151.5 | 151.5 | 151.5 Mbytes
Step Temp Volume Cella Cellb Cellc CellGamma Pxx Pyy Pzz Pxy Pxz Pyz Lx Ly Lz Press PotEng 
       0    317.80759    163115.89    72.273649    72.273649    36.058334          120    20308.344    18874.617   -37756.785   -454.04926    905.72317    891.85324    72.273649    62.590817    36.058334    475.39232   -311757.62 
      10    312.86756     163131.3    72.275925    72.275925     36.05947          120    20407.505    19275.904   -37123.634   -142.88814    664.31026    685.92866    72.275925    62.592788     36.05947    853.25818    -311751.5 
      20    316.73298    163146.45    72.278163    72.278163    36.060586          120    19593.053    19515.479   -35941.285    202.80114    638.76026    1340.9499    72.278163    62.594726    36.060586    1055.7491   -311762.13 
      30    312.89582    163161.43    72.280375    72.280375     36.06169          120    19156.493    19224.762   -36319.276    804.64435    1260.1254    1821.7675    72.280375    62.596641     36.06169    687.32629   -311757.64 
      40    312.49534    163176.11    72.282542    72.282542    36.062771          120    18630.979    18889.953   -36163.526    654.09353     1170.729    2371.9024    72.282542    62.598518    36.062771    452.46865   -311759.35 
      50    312.60234    163190.38     72.28465     72.28465    36.063823          120    18304.883    18688.225    -36482.28    174.07315     950.4383    1557.5946     72.28465    62.600344    36.063823    170.27616   -311761.12 
      60    312.27967    163204.13     72.28668    72.286681    36.064836          120    18163.522    18188.923   -37675.058   -23.710241    1048.7355    1930.2641     72.28668    62.602102    36.064836   -440.87117    -311761.9 
      70    314.07106    163217.14      72.2886      72.2886    36.065794          120    18170.484    17384.628   -37581.406    100.13286    763.37363     2163.321      72.2886    62.603764    36.065794   -675.43119   -311766.37 
      80    312.98791    163229.28    72.290392    72.290392    36.066688          120    18788.226    17109.507   -39131.999    503.94862    900.14403     1418.657    72.290392    62.605316    36.066688   -1078.0887   -311765.01 
      90    313.87195    163240.41    72.292036    72.292037    36.067508          120    17460.047    16667.981   -38606.582    681.22511     816.9539    1131.3949    72.292036     62.60674    36.067508   -1492.8512   -311766.77 
     100    312.32585    163250.41    72.293512    72.293513    36.068245          120    16476.833    16572.278   -38190.389    568.17257    1374.6354    737.91023    72.293512    62.608019    36.068245   -1713.7592   -311763.11 
     110    313.94834    163259.22    72.294812    72.294812    36.068893          120    16857.494    16817.757   -38618.166    24.592739    1104.4653    1207.6653    72.294812    62.609144    36.068893   -1647.6384   -311765.65 
     120    314.83214    163266.94    72.295951    72.295952    36.069461          120    18400.651    17542.639   -37313.281   -384.20314    821.83494    1472.8289    72.295951    62.610131    36.069461   -456.66356   -311766.32 
     130    314.25419    163274.12    72.297011    72.297012     36.06999          120    18971.079    17962.905   -35506.015   -140.42737    870.88284    884.11369    72.297011    62.611049     36.06999    475.98983   -311763.14 
     140     314.7141    163281.21    72.298059    72.298059    36.070513          120    19228.979    18145.989   -35126.577      207.412    628.38638    814.94667    72.298059    62.611956    36.070513    749.46359   -311762.29 
     150    314.01743    163288.37    72.299115    72.299116     36.07104          120    19748.422    18106.828    -35742.54    37.861352    285.15075    1257.6168    72.299115    62.612871     36.07104    704.23684   -311758.34 
     160    316.99766     163295.6    72.300181    72.300182    36.071572          120    20055.647    18233.872   -36092.666   -160.89109   -37.458071    1487.4017    72.300181    62.613794    36.071572    732.28452   -311761.26 
     170    316.99425     163302.9    72.301259    72.301259    36.072109          120    19716.835    18632.809   -35972.682   -254.87422    393.12734    1355.9971    72.301259    62.614727    36.072109    792.32059    -311758.2 
     180    315.35832    163310.28    72.302349    72.302349    36.072653          120    19663.262    18708.291   -36288.413   -205.57108      272.805    716.26828    72.302349    62.615671    36.072653    694.37996   -311751.18 
     190    317.99876    163317.69    72.303441    72.303442    36.073198          120    19249.323    18399.009   -37008.572   -150.52353     480.9782    1295.9926    72.303441    62.616618    36.073198    213.25331   -311752.73 
     200    320.22398    163324.89    72.304505    72.304505    36.073729          120    18417.878    18031.198   -38002.544    182.95175    997.60076    1928.2051    72.304505    62.617539    36.073729     -517.823   -311753.22 
     210    322.29621    163331.62    72.305497    72.305497    36.074224          120    19032.106    17041.932    -37625.71    647.58292    852.42984    1235.1624    72.305497    62.618398    36.074224   -517.22401   -311753.15 
     220    321.18368    163337.85    72.306417    72.306418    36.074683          120    19090.838      17558.6   -37212.522     719.8418    865.05809    1203.1101    72.306417    62.619195    36.074683   -187.69461   -311747.46 
     230    322.69654    163343.78    72.307291    72.307292    36.075119          120    19279.671    17417.018   -36254.491    338.10202    1542.9966    1040.0143    72.307291    62.619952    36.075119    147.39943   -311746.28 
     240    323.90705    163349.51    72.308138    72.308138    36.075541          120    19684.841    16741.586   -37246.605   -91.970166     2287.461    566.38797    72.308138    62.620685    36.075541   -273.39245   -311744.48 
     250     326.0753    163354.92    72.308935    72.308936    36.075939          120     19585.93    17430.942       -38026   -279.42744    1602.2092    961.41812    72.308935    62.621376    36.075939   -336.37619   -311744.55 
     260    327.42735    163359.95    72.309678    72.309678     36.07631          120    19175.449    18089.379   -38951.743     10.65102    1493.1037    1398.7086    72.309678    62.622019     36.07631   -562.30521   -311743.22 
     270    326.92029    163364.54    72.310355    72.310356    36.076648          120    19351.939    17840.117    -39001.23    479.46457    1547.4389    956.16105    72.310355    62.622605    36.076648    -603.0581   -311738.37 
     280    327.42244    163368.68    72.310966    72.310967    36.076952          120    19397.803    17875.284   -38923.105    104.74265    949.53171    793.56883    72.310966    62.623134    36.076952    -550.0059   -311735.47 
     290    329.62136    163372.39    72.311513    72.311513    36.077225          120    18189.079    17964.977   -38924.784    35.626477    1469.1104    1480.9664    72.311513    62.623608    36.077225   -923.57588   -311736.11 
     300    329.25946    163375.53    72.311977    72.311977    36.077457          120    17449.892    17335.118   -38413.807   -126.62766    1285.2979     1070.207    72.311977    62.624009    36.077457   -1209.5992    -311732.2 
     310     331.6614    163378.03    72.312345    72.312346    36.077641          120    17933.299    17016.132   -37300.351   -226.33735    1540.3693    1575.0414    72.312345    62.624329    36.077641   -783.64013   -311733.89 
     320      330.288    163380.02    72.312639     72.31264    36.077787          120    17397.239    16681.726   -37570.734   -370.81572    1198.9048    1563.9315    72.312639    62.624583    36.077787   -1163.9226   -311728.35 
     330    334.63392    163381.41    72.312844    72.312844    36.077889          120    17498.191    16249.407   -37553.019   -315.65352    1117.0712    1076.8064    72.312844    62.624761    36.077889   -1268.4736    -311733.7 
     340    334.19784    163382.18    72.312958    72.312958    36.077946          120    17863.024    17108.572   -37323.155     142.4262    1318.6255    1264.6765    72.312958    62.624859    36.077946   -783.85266   -311730.69 
     350    333.19867    163382.52    72.313007    72.313008    36.077971          120    17092.836    16984.967   -37232.453    613.95467    1713.0012    1358.4373    72.313007    62.624902    36.077971   -1051.5502   -311727.12 
     360    337.69877    163382.38    72.312986    72.312987     36.07796          120    17498.234     16686.84   -36592.272    453.75094    1769.7867    1368.2971    72.312986    62.624884     36.07796   -802.39937   -311734.25 
     370    334.61875    163381.85    72.312908    72.312909    36.077921          120     17991.52    17224.697   -36865.368    349.94855    824.23513    2292.6228    72.312908    62.624816    36.077921   -549.71729   -311727.12 
     380    334.12672    163381.07    72.312794    72.312795    36.077864          120    17772.307    17892.042   -37306.369   -154.47471     547.5581    2028.5044    72.312794    62.624717    36.077864   -547.33988   -311724.98 
     390    336.98833    163380.04    72.312642    72.312642    36.077788          120    17951.427    17338.757   -38025.871    128.75243     219.5178    1751.8612    72.312642    62.624585    36.077788   -911.89565   -311730.28 
     400    337.61496    163378.63    72.312434    72.312435    36.077685          120    17734.372     17206.34   -36907.629    4.4058364    411.87749    2078.2887    72.312434    62.624406    36.077685   -655.63909   -311731.44 
     410    334.47238    163376.99    72.312192    72.312192    36.077564          120    17753.499    17911.576   -36073.965   -180.85628    803.26322    1736.2035    72.312192    62.624196    36.077564   -136.29659   -311726.69 
     420     335.8091     163375.3    72.311943    72.311944     36.07744          120    17817.306    18030.993    -36835.67   -235.41907    101.25021    1337.8261    72.311943     62.62398     36.07744   -329.12343    -311729.9 
     430    334.79725    163373.52     72.31168    72.311681    36.077309          120    17835.373    18327.858   -36916.543    55.007114    258.46059    1181.3676     72.31168    62.623753    36.077309   -251.10369   -311729.49 
     440     333.7013    163371.67    72.311407    72.311408    36.077172          120    17587.991    18441.267   -36847.937     230.2297    855.35511    939.17125    72.311407    62.623516    36.077172   -272.89287   -311729.17 
     450    333.51525    163369.76    72.311125    72.311126    36.077032          120     17368.17    17957.038    -36779.76    38.085536    1003.1745    1298.2678    72.311125    62.623272    36.077032   -484.85058   -311730.92 
     460     332.3107    163367.71    72.310822    72.310822     36.07688          120    17758.458    18686.541   -37350.988    667.08825    581.51395    1385.4433    72.310822    62.623009     36.07688   -301.99622   -311730.88 
     470    331.50946    163365.57    72.310507    72.310507    36.076723          120    18196.666    18659.513   -37461.503    360.98605    835.52026    819.44168    72.310507    62.622737    36.076723   -201.77463   -311732.38 
     480    335.30169    163363.38    72.310184    72.310184    36.076562          120    17878.843    17872.276   -37330.582    201.07057    1205.5208    768.04627    72.310184    62.622457    36.076562   -526.48765   -311742.63 
     490    333.01956    163361.06    72.309842    72.309842    36.076391          120    18224.948    18647.247    -36638.94    67.173457    797.54161    247.34991    72.309842     62.62216    36.076391    77.751599   -311741.74 
     500    330.26375    163358.87    72.309519    72.309519     36.07623          120    19292.698    19378.881   -36606.827   -217.16998    137.32176     820.5219    72.309519    62.621881     36.07623    688.25061   -311739.71 
     510    329.24926    163357.04    72.309249    72.309249    36.076096          120    18571.338    18946.033   -36584.751   -488.10503   -166.26559    735.12067    72.309249    62.621647    36.076096    310.87317   -311741.81 
     520    329.74337    163355.43    72.309011    72.309011    36.075977          120    18697.236    17731.792   -35727.451   -164.47201    547.00264    542.56212    72.309011    62.621441    36.075977    233.85888   -311746.65 
     530     330.3362       163354    72.308799      72.3088    36.075871          120    18915.317    17867.505   -35533.496   -204.80925    484.28001    987.84415    72.308799    62.621258    36.075871    416.44206   -311752.27 
     540    328.18805    163352.83    72.308627    72.308628    36.075786          120    18882.485    18837.058   -35290.708    33.516122     966.0688    925.63469    72.308627    62.621109    36.075786    809.61154    -311751.8 
     550    327.39804    163352.08    72.308516    72.308516     36.07573          120    20014.396     18319.15    -35436.63    776.94151    1268.2939     1542.664    72.308516    62.621012     36.07573    965.63829   -311754.68 
     560     326.4334    163351.77     72.30847    72.308471    36.075707          120    19371.597    18666.976    -35868.34    817.97144    268.52699    2464.7371     72.30847    62.620973    36.075707    723.41102   -311757.09 
     570    326.25678    163351.81    72.308477    72.308477     36.07571          120     19212.53     19048.17   -37031.091    785.21974    817.98486     2043.016    72.308477    62.620978     36.07571    409.86946   -311760.55 
     580    325.02375    163352.02    72.308508    72.308509    36.075726          120    19146.072    17632.738   -38093.268    855.09562    794.98573    2005.9944    72.308508    62.621006    36.075726   -438.15262   -311762.14 
     590    322.02028    163352.07    72.308515    72.308515    36.075729          120    18894.654    18033.664   -37716.461    502.43665   -126.45951    1542.1674    72.308515    62.621011    36.075729   -262.71415   -311760.53 
     600    320.44918    163352.02    72.308508    72.308509    36.075726          120    20525.769    18287.071   -36388.678     327.7954   -185.68612    1157.6636    72.308508    62.621006    36.075726    808.05376   -311761.46 
     610    319.36497    163352.35    72.308556    72.308556     36.07575          120    21150.045     18910.42   -35735.498    460.32109    926.79888    592.82676    72.308556    62.621047     36.07575    1441.6557   -311762.92 
     620    321.70847     163353.3    72.308696    72.308696     36.07582          120    19930.356    19035.338   -36152.043     261.1449    1178.0529    705.74043    72.308696    62.621168     36.07582     937.8837   -311770.27 
     630     318.7375    163354.66    72.308898    72.308898     36.07592          120    19585.961    18440.603   -36158.829     151.5589    893.18396    1090.8508    72.308898    62.621343     36.07592    622.57823   -311767.94 
     640    319.97924    163356.28    72.309136    72.309137     36.07604          120    19666.726    17983.059   -36389.048    206.28222    1677.0869    764.35795    72.309136     62.62155     36.07604    420.24541   -311773.18 
     650     317.9525    163358.05    72.309398    72.309399     36.07617          120    18762.968    17399.971    -36158.43    437.48383    1716.4688    193.12166    72.309398    62.621776     36.07617    1.5032767    -311771.7 
     660    318.56351    163359.77    72.309651    72.309652    36.076296          120    18583.912     17143.18   -37358.271   -340.88077    827.97272    555.79133    72.309651    62.621995    36.076296   -543.72646   -311775.18 
     670    314.11861    163361.18    72.309859    72.309859      36.0764          120    17899.323     17096.78   -37709.265   -563.20553    1077.2825    1031.1467    72.309859    62.622175      36.0764   -904.38739   -311768.07 
     680    317.68572    163362.12    72.309998    72.309998    36.076469          120    18449.826    17212.236    -38127.34   -210.69761     949.7013    680.98551    72.309998    62.622296    36.076469    -821.7592   -311776.49 
     690    315.24442    163362.65    72.310076    72.310077    36.076509          120    19108.263    17449.257   -37425.847    155.43612    394.73027    835.24578    72.310076    62.622364    36.076509    -289.4425   -311773.81 
     700    315.98977    163363.03    72.310133    72.310133    36.076537          120    20047.998    17939.634   -36759.535     4.257433    274.31784    1121.1547    72.310133    62.622413    36.076537    409.36567   -311776.29 
     710    318.48537    163363.57    72.310211    72.310212    36.076576          120    19502.582    18039.381   -36269.919    3.6382049   -404.28896    1913.2803    72.310211     62.62248    36.076576    424.01463   -311781.34 
     720     314.2986    163364.26    72.310314    72.310314    36.076627          120    19044.484    17653.658   -36722.636   -59.166795    17.961773    1484.7232    72.310314    62.622569    36.076627   -8.1647669   -311773.65 
     730    314.16801    163364.92    72.310412    72.310412    36.076676          120    19029.586    17520.183   -37915.124    -15.17797    699.52802    1171.9496    72.310412    62.622654    36.076676   -455.11831   -311773.03 
     740    317.32335    163365.35    72.310475    72.310475    36.076707          120    18797.224    17236.416    -38665.97    363.31872    1412.3509    761.21912    72.310475    62.622709    36.076707     -877.443   -311778.76 
     750     317.3764    163365.39     72.31048     72.31048     36.07671          120    18885.199    16553.739   -38000.443    572.20419    1913.6341    775.92604     72.31048    62.622713     36.07671   -853.83511   -311778.16 
     760    319.79326    163365.01    72.310424    72.310425    36.076682          120     19479.81    16366.155   -37939.283    457.98199    2212.5654    592.80364    72.310424    62.622665    36.076682   -697.77302   -311781.98 
     770    316.14322    163364.35    72.310326    72.310327    36.076633          120    19198.547    17245.263   -37375.916    354.34342    1491.5949    1198.2877    72.310326     62.62258    36.076633   -310.70204   -311773.64 
     780    318.14323    163363.52    72.310205    72.310206    36.076573          120    18681.494    16690.398   -36728.699    498.73079     900.6499    1769.9152    72.310205    62.622475    36.076573   -452.26901   -311776.06 
     790    319.77042    163362.55    72.310061    72.310062    36.076501          120    18941.113    17081.192     -35834.1    429.59717    736.21768    2161.0379    72.310061     62.62235    36.076501     62.73514   -311776.97 
     800    320.14789    163361.62    72.309923    72.309924    36.076432          120    19148.273    17917.012   -36222.039    816.45875    12.217465    2322.1507    72.309923    62.622231    36.076432    281.08231   -311776.12 
     810    319.43212    163360.83    72.309807    72.309808    36.076374          120    19135.169    17912.844   -36459.992    512.69958    377.04068    2681.1357    72.309807     62.62213    36.076374    196.00694      -311773 
     820    319.92605    163360.13    72.309705    72.309705    36.076323          120    17836.953    17805.025   -36249.382    356.00581    379.86348    2571.6959    72.309705    62.622042    36.076323   -202.46795    -311771.8 
     830    322.02017    163359.38    72.309594    72.309594    36.076268          120    17956.046    17956.365   -36249.664    108.02303     862.6605    2049.5653    72.309594    62.621946    36.076268   -112.41751   -311773.02 
     840     323.7928    163358.59    72.309477    72.309478     36.07621          120    18724.174    18225.442   -37174.829    130.14657    681.80269    1078.7031    72.309477    62.621845     36.07621   -75.070755   -311774.21 
     850    319.75993     163357.8     72.30936    72.309361    36.076151          120    19151.049     17909.66   -36822.127    416.81455    243.78375    989.33485     72.30936    62.621743    36.076151    79.527454   -311764.01 
     860    321.17802    163357.03    72.309247    72.309248    36.076095          120    18078.558    17948.939    -36730.98     721.1542    580.67369    755.89246    72.309247    62.621646    36.076095   -234.49419   -311763.18 
     870    325.79074    163356.18    72.309122    72.309122    36.076032          120    18329.182     17951.52   -36604.294    950.37038    340.85094    308.58934    72.309122    62.621537    36.076032   -107.86407    -311769.5 
     880    326.20383    163355.36       72.309    72.309001    36.075972          120    18990.136    18871.185   -35603.713    645.03479    1075.0783    554.50301       72.309    62.621432    36.075972    752.53596   -311767.28 
     890    323.02927    163354.89    72.308931    72.308931    36.075937          120    18822.424    19639.465   -35592.316   -102.00996     546.4725    1556.1726    72.308931    62.621371    36.075937    956.52443   -311758.46 
     900     328.8434    163354.89    72.308931    72.308932    36.075937          120    19477.692    18996.739   -34390.402    606.54793    548.79483    1894.0637    72.308931    62.621372    36.075937    1361.3432   -311766.76 
     910    327.67415    163355.51    72.309022    72.309023    36.075983          120    19834.556    18248.871   -35098.603    677.02339    990.18358    1578.8431    72.309022    62.621451    36.075983    994.94126   -311761.49 
     920    326.39095    163356.58     72.30918    72.309181    36.076061          120    19318.111    18409.277   -36649.972    410.19895    937.99015    1570.3934     72.30918    62.621587    36.076061    359.13842   -311756.54 
     930    328.41403    163357.78    72.309358    72.309359     36.07615          120    18139.967    18684.696   -37364.788    218.22098    612.31909      1093.97    72.309358    62.621742     36.07615   -180.04165    -311757.9 
     940    329.17984    163358.89    72.309521    72.309522    36.076232          120    18161.144    18706.263   -36979.115    253.94582   -60.597357    991.93861    72.309521    62.621883    36.076232   -37.236134    -311757.2 
     950    329.49742    163359.95    72.309677    72.309678    36.076309          120    18886.043    18683.911   -36695.901    998.96523     281.8374    823.69088    72.309677    62.622018    36.076309    291.35098   -311755.93 
     960    331.61673    163361.11    72.309848    72.309849    36.076395          120    19793.656     18578.23    -37246.09    1254.8966   -621.69488    1039.2732    72.309848    62.622166    36.076395    375.26512   -311757.86 
     970    332.03849     163362.4    72.310039    72.310039     36.07649          120    19915.192    17135.088   -36693.641    1334.4617   -434.16162    1636.3241    72.310039    62.622331     36.07649     118.8795    -311756.4 
     980    332.77166    163363.69    72.310229     72.31023    36.076585          120     18867.68    17068.952   -37427.773    783.02629    10.017264    2081.9118    72.310229    62.622496    36.076585   -497.04686   -311756.56 
     990    333.32083    163364.77    72.310388    72.310389    36.076664          120    18935.798    17838.741   -36904.265    224.31822   -240.32634    1553.6191    72.310388    62.622634    36.076664   -43.242164   -311756.31 
    1000    334.08028    163365.79     72.31054     72.31054     36.07674          120    19748.602    18592.416   -37240.042   -64.353714    619.97107    1229.4151     72.31054    62.622765     36.07674    366.99197   -311757.05 
    1010    332.39744    163366.91    72.310705    72.310706    36.076822          120    19304.474    18119.687   -37935.294   -107.69204    1134.0154    1598.8256    72.310705    62.622908    36.076822   -170.37775   -311753.39 
    1020    332.94769    163367.96     72.31086     72.31086    36.076899          120    19227.567    18234.961    -37033.33    232.16101    657.53958    1615.3765     72.31086    62.623042    36.076899    143.06592   -311754.11 
    1030     332.7382    163369.07    72.311023    72.311024    36.076981          120    20144.755    19205.351   -36587.765    539.77797    292.27115    1408.1976    72.311023    62.623184    36.076981     920.7801   -311753.58 
    1040    332.93288    163370.57    72.311245    72.311245    36.077092          120    20882.801    19455.255   -36236.582    495.07664    634.36651    2345.2521    72.311245    62.623376    36.077092    1367.1577   -311754.32 
    1050    331.74438    163372.66    72.311552    72.311553    36.077245          120    20255.273    19569.582   -35813.448    790.22517    821.59413    1389.0729    72.311552    62.623642    36.077245    1337.1358   -311752.56 
    1060    330.97532    163375.29     72.31194    72.311941    36.077439          120    20225.799    19133.134    -36949.95    687.31005    604.04944    1454.4816     72.31194    62.623978    36.077439    802.99429   -311751.98 
    1070    334.40206    163378.23    72.312375    72.312376    36.077656          120    20125.375     18723.56    -37780.35    793.30086    718.03242    2281.1627    72.312375    62.624355    36.077656    356.19531   -311759.45 
    1080    333.77686    163381.24    72.312818    72.312819    36.077876          120    19167.841    18105.814   -38334.009    502.14903    141.49666     2278.913    72.312818    62.624738    36.077876   -353.45141   -311761.13 
    1090    330.88554    163384.02    72.313228    72.313229    36.078081          120    18571.229    17612.462    -37671.35    354.57874   -402.86446    2491.2114    72.313228    62.625093    36.078081   -495.88621   -311757.32 
    1100    329.43719     163386.5    72.313595    72.313595    36.078264          120    18454.791    17765.572   -37190.923    705.45931    600.05221    2713.0005    72.313595    62.625411    36.078264    -323.5201    -311756.6 
    1110    330.52127    163388.78    72.313931    72.313932    36.078432          120    19062.013    17792.119   -36413.218    922.08548    492.50975     2514.383    72.313931    62.625702    36.078432    146.97123   -311760.74 
    1120    330.88956    163391.07    72.314269     72.31427      36.0786          120    19877.949    18010.712   -36413.223    1202.4573    40.581279    2058.0469    72.314269    62.625995      36.0786    491.81286   -311764.31 
    1130    329.08595     163393.5    72.314628    72.314628    36.078779          120    18916.365    17708.152   -35928.643    1493.4835    -40.45811    1711.9948    72.314628    62.626305    36.078779    231.95808      -311763 
    1140    328.20478    163395.99    72.314995    72.314996    36.078963          120    18343.057    18149.834   -35796.904    1526.5601   -17.101044    1658.8535    72.314995    62.626624    36.078963    231.99574   -311764.05 
    1150    325.50503    163398.54    72.315372    72.315372     36.07915          120    19236.651    18694.303   -36286.224    1356.5008    916.74322    1277.8767    72.315372     62.62695     36.07915     548.2433   -311762.08 
    1160    326.71578    163401.28    72.315774    72.315775    36.079351          120    19362.465     18707.46   -35598.273    834.38904    686.55583    1264.6775    72.315774    62.627298    36.079351    823.88415   -311767.13 
    1170     325.9734    163404.32    72.316224    72.316224    36.079575          120    19298.658    18758.383   -35075.561    739.20813    0.5145369    1563.1162    72.316224    62.627687    36.079575    993.82663   -311768.83 
    1180    325.88726    163407.74    72.316727    72.316728    36.079827          120    19346.921    19142.277   -35838.447    863.15174    763.95742    2021.0672    72.316727    62.628124    36.079827    883.58373   -311771.32 
    1190    324.07274    163411.49    72.317281    72.317282    36.080103          120    20089.659    18902.541   -35864.361     409.9795    1848.4064    1918.7805    72.317281    62.628603    36.080103    1042.6129   -311771.26 
    1200     325.4853    163415.63    72.317892    72.317892    36.080408          120    20045.495    18260.736   -35413.002    136.61152    1299.5021    1872.0883    72.317892    62.629132    36.080408    964.40956   -311777.27 
    1210    320.85586    163420.12    72.318554    72.318555    36.080738          120    19735.204    17908.839   -35489.915      96.3274     452.7893    1872.5651    72.318554    62.629706    36.080738    718.04262   -311770.84 
    1220    320.59723    163424.85    72.319252    72.319253    36.081087          120    20211.099    17687.641   -35249.631   -79.764984    258.97667    1430.6709    72.319252     62.63031    36.081087    883.03638   -311773.12 
    1230    319.35902    163429.84    72.319989    72.319989    36.081454          120    20115.507    17231.113   -35700.299   -64.347704     425.4279    1738.5208    72.319989    62.630948    36.081454     548.7738   -311773.48 
    1240    320.94235       163435     72.32075     72.32075    36.081834          120    19877.245    18017.029     -35225.3   -46.948752    457.21661    1847.4183     72.32075    62.631607    36.081834    889.65795   -311778.62 
    1250    321.75797    163440.43    72.321551    72.321551    36.082233          120    20622.391    17898.022   -35449.194    218.82238    159.59328    1945.2901    72.321551    62.632301    36.082233    1023.7396    -311781.9 
    1260    320.66016    163446.19    72.322399      72.3224    36.082657          120    20478.817    17925.386   -36079.661    814.25279    106.97147    1737.1421    72.322399    62.633036    36.082657    774.84746   -311781.38 
    1270    320.94773    163452.14    72.323278    72.323279    36.083095          120    19313.939     18289.23    -36797.85    358.21611   -136.31705    1446.7157    72.323278    62.633797    36.083095    268.43976    -311784.1 
    1280    320.40814     163458.1    72.324157    72.324157    36.083533          120     18858.25    18282.372   -36730.863    6.9918527    379.36481    2121.0842    72.324157    62.634558    36.083533    136.58646   -311784.59 
    1290    322.12452    163463.93    72.325017    72.325017    36.083963          120    18559.684     17279.36   -37040.763    362.13643    280.79323    1528.1919    72.325017    62.635303    36.083963   -400.57295   -311789.44 
    1300      316.787    163469.46    72.325832    72.325832    36.084369          120    19079.536    16851.868   -37044.924     567.3383   -450.67601     1671.746    72.325832    62.636008    36.084369   -371.17326   -311780.09 
    1310    316.78143    163474.68    72.326602    72.326602    36.084753          120    19182.273     17667.48   -36552.241    1124.7568    143.60786    2023.8179    72.326602    62.636675    36.084753    99.170848   -311781.33 
    1320    315.97527    163479.81    72.327359    72.327359    36.085131          120    18720.239    18742.163   -35333.361    1127.2582    224.52928     2562.738    72.327359    62.637331    36.085131    709.68054   -311780.37 
    1330    321.02194    163485.14    72.328144    72.328144    36.085523          120    18789.134    18962.952   -35054.748    633.07534     248.2577    2572.2544    72.328144    62.638011    36.085523    899.11234   -311790.64 
    1340    319.26403    163490.73    72.328968    72.328969    36.085934          120    18984.795    17986.567   -35800.005    318.15195    749.04067    1912.0065    72.328968    62.638725    36.085934    390.45243   -311787.61 
    1350    319.61947    163496.35    72.329797    72.329798    36.086348          120    18177.518    17757.582   -37106.174   -425.04878    1070.9543    1678.6705    72.329797    62.639443    36.086348   -390.35795   -311788.21 
    1360    318.93863    163501.66    72.330581    72.330581    36.086739          120    18305.614    16837.573    -37853.21   -422.18717    960.98283    1952.1855    72.330581    62.640121    36.086739   -903.34102   -311786.48 
    1370    318.61208    163506.44    72.331285    72.331286     36.08709          120    18940.063     16646.93   -37958.001    91.620773    470.72402    2175.5115    72.331285    62.640731     36.08709   -790.33606   -311785.57 
    1380    321.95244    163510.74    72.331919     72.33192    36.087406          120    18743.877    17991.319   -37315.769    616.02072   -87.857303    1322.5636    72.331919     62.64128    36.087406   -193.52425   -311790.62 
    1390    319.72846    163514.84    72.332523    72.332524    36.087708          120    19599.621    17703.131   -36319.119    498.52157    31.044686    1130.0986    72.332523    62.641803    36.087708     327.8777   -311785.78 
    1400    319.58647    163518.95     72.33313    72.333131    36.088011          120    19575.811    17717.017   -36803.751    239.65543   -114.92374    1828.0674     72.33313    62.642329    36.088011     163.0258   -311784.77 
    1410    319.15827    163523.06    72.333736    72.333737    36.088313          120     19393.04    18023.747   -37245.372   -347.66164   -95.688901    1537.9229    72.333736    62.642854    36.088313     57.13799   -311783.32 
    1420    320.54933    163527.09     72.33433    72.334331    36.088609          120    19314.688     17265.15   -37069.681    196.67125    356.07103    1117.6553     72.33433    62.643368    36.088609   -163.28101   -311784.05 
    1430    319.11922    163530.93    72.334896    72.334897    36.088892          120    18876.787    17411.959   -37370.089    894.48539    1084.9379    955.28174    72.334896    62.643859    36.088892   -360.44795   -311780.23 
    1440    320.87703    163534.53    72.335427    72.335428    36.089156          120    19070.054    18486.626   -37482.549    860.30851    1697.0537    1021.5323    72.335427    62.644318    36.089156    24.710236   -311781.56 
    1450    321.53766    163538.05    72.335946    72.335946    36.089415          120    19789.559    18878.556   -37386.045    1146.0392    930.96712    81.859863    72.335946    62.644767    36.089415    427.35696      -311781 
    1460    320.56197    163541.67    72.336479     72.33648    36.089681          120    19631.856    18605.928   -37063.611     858.8075    586.14347    695.87725    72.336479    62.645229    36.089681    391.39078   -311777.36 
    1470    324.48672    163545.36    72.337025    72.337025    36.089953          120    19262.213    18042.758   -37635.784    753.02702    253.01253     1524.024    72.337025    62.645702    36.089953   -110.27103    -311782.7 
    1480    322.58231    163548.95    72.337554    72.337554    36.090217          120    19791.524    17920.987   -37250.795    734.40954    726.35645    1317.8463    72.337554     62.64616    36.090217    153.90534   -311776.29 
    1490    324.53179    163552.53     72.33808    72.338081     36.09048          120    19884.425    18466.561    -36992.69     664.0805   -114.02414    1915.0363     72.33808    62.646616     36.09048    452.76499   -311777.57 
    1500    324.38648    163556.22    72.338625    72.338625    36.090752          120    19789.899    18636.489   -37435.653    533.29054    403.78442    2165.2129    72.338625    62.647087    36.090752    330.24525   -311775.13 
    1510    326.08096    163559.98     72.33918     72.33918    36.091029          120     19559.21     18237.69   -36742.398    636.15287    711.18823    2197.1766     72.33918    62.647568    36.091029    351.50074   -311776.51 
    1520    325.67778    163563.82    72.339745    72.339746    36.091311          120     18840.04    18719.573   -36781.216    559.55942    193.45524    2613.1812    72.339745    62.648058    36.091311    259.46596   -311773.24 
    1530     326.3431    163567.69    72.340316    72.340316    36.091595          120    18829.955    18731.624   -37017.166    242.91545    727.87669    1951.9809    72.340316    62.648552    36.091595    181.47111   -311772.51 
    1540    326.80661    163571.58    72.340889     72.34089    36.091882          120    19575.704    18790.615   -36834.901   -224.15825    404.02406    1991.2689    72.340889    62.649048    36.091882    510.47267   -311770.94 
    1550    328.68647    163575.55    72.341474    72.341475    36.092173          120    18668.988    17440.421   -37047.099   -146.52412   -47.597553    2006.8372    72.341474    62.649555    36.092173   -312.56347   -311772.68 
    1560    326.07069    163579.29    72.342025    72.342026    36.092448          120    18068.391    16876.063   -37327.427    516.78812   -149.22218    1241.6672    72.342025    62.650032    36.092448   -794.32444   -311765.46 
    1570    330.03225    163582.55    72.342506    72.342507    36.092688          120    17799.156    16539.495   -37888.528    1042.3643   -309.59282    1710.4366    72.342506    62.650449    36.092688   -1183.2924   -311770.99 
    1580    329.05148    163585.15    72.342891    72.342891     36.09288          120    17041.444    16446.848   -38121.644    1251.3326    10.214149    1379.6894    72.342891    62.650782     36.09288   -1544.4506   -311767.28 
    1590    326.74777    163587.01    72.343165    72.343165    36.093017          120    17502.297    17139.936    -37262.06    411.11976     570.9426    846.43616    72.343165    62.651019    36.093017   -873.27564   -311761.39 
    1600    332.98445    163588.43    72.343373    72.343374    36.093121          120    19038.156    17651.107   -36675.492    643.81586   -91.603104    1743.7355    72.343373      62.6512    36.093121    4.5905423   -311771.63 
    1610    330.07946    163589.79    72.343573    72.343574    36.093221          120    18913.586    18210.124   -36569.932    1104.3625    359.05535    2499.0334    72.343573    62.651373    36.093221    184.59261   -311764.88 
    1620    329.89708    163591.19     72.34378    72.343781    36.093324          120    19620.402    17481.433   -36896.609    594.20964    295.16113    2030.6365     72.34378    62.651552    36.093324    68.408697   -311763.65 
    1630    330.28178    163592.59    72.343987    72.343987    36.093427          120    19043.501    17453.528   -37263.604    810.78614    77.068705    1862.5523    72.343987    62.651731    36.093427   -255.52514   -311763.13 
    1640    331.05642    163593.84    72.344171    72.344172    36.093519          120    18428.951    17560.517   -37548.275    1203.7713   -720.42128    1412.4121    72.344171    62.651891    36.093519   -519.60247   -311764.06 
    1650    332.47938    163594.84    72.344319    72.344319    36.093593          120    18084.425    18080.071   -36802.962    852.87256   -774.24485    1494.9331    72.344319    62.652019    36.093593   -212.82203   -311766.54 
    1660    330.82311     163595.7    72.344445    72.344445    36.093655          120    18078.455    17826.627   -36585.966    335.94097    -728.0924    1650.2457    72.344445    62.652128    36.093655   -226.96125   -311763.26 
    1670    331.12593    163596.43    72.344553    72.344554     36.09371          120    18447.971    18064.978   -36960.942    492.93619   -306.60665    1817.4246    72.344553    62.652222     36.09371   -149.33124   -311764.35 
    1680    331.16499    163597.09     72.34465     72.34465    36.093758          120    18864.201    18226.967   -37369.566    573.39573    185.89948    1831.8647     72.34465    62.652305    36.093758   -92.799308   -311764.25 
    1690    329.74469    163597.66    72.344734    72.344735      36.0938          120    18902.546    18140.748   -38380.637    667.55418    361.64181    1569.5492    72.344734    62.652378      36.0938   -445.78129   -311762.19 
    1700    331.30217    163598.01    72.344785    72.344786    36.093825          120    18623.689    17345.559   -38152.741    904.48973   -208.75345    2695.4782    72.344785    62.652422    36.093825   -727.83112   -311766.11 
    1710    330.61719       163598    72.344784    72.344785    36.093825          120    18945.384    16916.673    -38900.56    190.55082   -315.85473    2564.4108    72.344784    62.652422    36.093825    -1012.834   -311765.46 
    1720    331.73595    163597.52    72.344713    72.344713    36.093789          120    18863.671    16322.033   -38377.321   -201.71799    80.868534    1950.8616    72.344713     62.65236    36.093789   -1063.8723   -311768.88 
    1730    330.66447    163596.56    72.344572    72.344572    36.093719          120    19500.117    16284.985   -37716.147    221.58338    170.41918    1720.6443    72.344572    62.652238    36.093719   -643.68156   -311768.49 
    1740    329.39036    163595.36    72.344395    72.344396    36.093631          120     20264.51    16706.064   -35857.504    450.81733    -745.0307     1720.757    72.344395    62.652085    36.093631    371.02335   -311767.83 
    1750    328.43155    163594.36    72.344247    72.344248    36.093557          120    20585.137    17139.968   -35149.219    227.27861   -1100.7385    794.42534    72.344247    62.651956    36.093557    858.62852   -311767.95 
    1760    326.85715    163593.72    72.344154    72.344154     36.09351          120    19789.985    16987.461   -36669.595    621.94646   -650.56097    1453.0225    72.344154    62.651875     36.09351     35.95037   -311766.85 
    1770    325.14623    163593.14    72.344068    72.344069    36.093467          120    19313.626    16983.492   -37137.929    465.90558   -146.84504    2513.9314    72.344068    62.651801    36.093467   -280.27048   -311765.56 
    1780    329.35525    163592.44    72.343964    72.343965    36.093416          120     18766.51    17209.934   -36889.784    716.11398   -339.86566    2310.8211    72.343964    62.651712    36.093416   -304.44663   -311775.58 
    1790    325.83313    163591.59    72.343838    72.343839    36.093353          120    18450.444     17935.03   -37702.791    608.14002   -256.79495    2803.4681    72.343838    62.651603    36.093353   -439.10559   -311771.67 
    1800    325.91329    163590.54    72.343684    72.343685    36.093276          120    18609.955    17891.631   -37638.492    111.24611   -515.97763    2585.5801    72.343684    62.651469    36.093276   -378.96858   -311774.21 
    1810    325.99637    163589.32    72.343504    72.343505    36.093186          120    17904.155    18118.563   -38024.003    525.06577   -867.65809    2604.2633    72.343504    62.651313    36.093186   -667.09503   -311776.89 
    1820    324.32802    163587.82    72.343283    72.343283    36.093076          120    17969.943     18069.12    -38724.74    505.44494   -736.20105    2082.7668    72.343283    62.651121    36.093076    -895.2256   -311776.21 
    1830    323.40547    163585.91    72.343002    72.343002    36.092935          120     18024.52    17459.081   -39189.514    950.77623    -788.4927    1534.1099    72.343002    62.650878    36.092935   -1235.3046   -311777.02 
    1840     324.7028    163583.49    72.342646    72.342646    36.092758          120    18724.557    17043.049   -38137.943     1065.396   -342.73172     1520.267    72.342646     62.65057    36.092758   -790.11223   -311781.73 
    1850    324.71891    163580.75    72.342241    72.342241    36.092556          120    18851.194    16486.978   -36745.444    447.19667   -261.97895    1891.0779    72.342241    62.650219    36.092556   -469.09084   -311783.76 
    1860    322.75111    163577.83    72.341811    72.341812    36.092341          120    18786.834    16485.272    -36794.22   -234.78612   -261.16936    1566.1427    72.341811    62.649847    36.092341   -507.37149   -311782.17 
    1870    323.24227    163574.75    72.341356    72.341357    36.092115          120      19356.7    16346.977   -36846.448    611.40223    52.067537     1579.864    72.341356    62.649453    36.092115   -380.92395   -311784.45 
    1880     322.4553    163571.54    72.340884    72.340885    36.091879          120     19845.89    16748.061   -37770.088    1825.1843   -888.00651     1957.067    72.340884    62.649044    36.091879   -392.04532    -311784.9 
    1890    322.20228    163568.23    72.340395    72.340395    36.091635          120     19302.37    16403.974   -37190.507    1400.3063   -697.39598    1444.2825    72.340395     62.64862    36.091635    -494.7212   -311786.66 
    1900    319.90304    163564.78    72.339887    72.339888    36.091381          120    20264.313     16036.87    -36115.95    1085.1773   -1081.2898    1493.7078    72.339887     62.64818    36.091381    61.744058   -311783.64 
    1910    321.78959    163561.41     72.33939     72.33939    36.091133          120     19981.68    16799.163   -36293.467    1228.5168   -878.98276    2071.5663     72.33939     62.64775    36.091133    162.45856   -311788.69 
    1920    321.84756    163558.15    72.338909     72.33891    36.090894          120    19808.636    15903.702   -36889.921    936.70688   -685.85566    1996.6257    72.338909    62.647334    36.090894   -392.52786   -311790.37 
    1930    318.62774    163554.78    72.338413    72.338414    36.090646          120    18639.967    15859.523   -37576.854    907.48939   -825.26238      1970.45    72.338413    62.646904    36.090646   -1025.7876   -311785.69 
    1940    319.94543    163551.04    72.337862    72.337862    36.090371          120    18080.697    16439.167   -37210.582    843.80858     -389.421    1544.5788    72.337862    62.646426    36.090371   -896.90579   -311789.57 
    1950    322.83703    163546.97    72.337262    72.337263    36.090072          120     18627.96    17402.116   -36620.828    790.47743   -773.23543    1121.2747    72.337262    62.645907    36.090072   -196.91687   -311795.94 
    1960    320.89428     163542.9    72.336662    72.336662    36.089772          120    19337.094     18028.66   -36236.855    374.27423   -734.51428    1616.4316    72.336662    62.645387    36.089772    376.29963   -311792.72 
    1970    323.65275    163539.08    72.336098    72.336099    36.089491          120    19663.749    18495.367   -36278.547   -107.79154   -438.95143    1951.1598    72.336098    62.644899    36.089491     626.8563   -311798.74 
    1980    318.96489    163535.69    72.335599    72.335599    36.089242          120    20333.625    19105.182   -35157.373   -356.83026   -257.14666    1624.3889    72.335599    62.644467    36.089242    1427.1445   -311789.81 
    1990     317.4009    163532.99    72.335201    72.335201    36.089043          120    19732.309    19121.174   -35332.597   -195.12774   -527.64571     1256.603    72.335201    62.644122    36.089043    1173.6288   -311786.95 
    2000      318.998    163530.94    72.334898    72.334899    36.088892          120    20776.783    19334.059   -35559.548    326.69318   -488.10441    1360.6723    72.334898     62.64386    36.088892    1517.0982   -311790.02 
    2010    321.09306    163529.62    72.334703    72.334704    36.088795          120     21163.26     19492.11   -36520.018    643.91055   -709.19891    2042.7764    72.334703    62.643691    36.088795    1378.4507   -311793.97 
    2020    321.18843       163529    72.334612    72.334612     36.08875          120    21904.294    18800.624    -36828.89    1328.8996   -697.13292    2398.0502    72.334612    62.643612     36.08875    1292.0096   -311793.98 
    2030    322.14349    163528.98    72.334608    72.334609    36.088748          120    21381.268    18749.208    -37974.65    1388.7273    -411.6019    2094.1548    72.334608    62.643609    36.088748    718.60881   -311795.45 
    2040    322.29868    163529.33     72.33466     72.33466    36.088774          120    21104.618    18856.039    -38083.27    659.41544   -302.27857    2352.3943     72.33466    62.643654    36.088774    625.79574   -311795.17 
    2050    320.99576       163530    72.334759     72.33476    36.088823          120    20905.875    18069.357   -35951.674    923.53486   -446.73187    2252.8304    72.334759     62.64374    36.088823    1007.8527   -311792.38 
    2060    321.22329    163531.15    72.334928    72.334929    36.088907          120    21907.695     18049.93   -35303.519    1142.0165   -1376.3785    1907.6307    72.334928    62.643886    36.088907    1551.3687      -311792 
    2070     323.3173    163532.98    72.335199      72.3352    36.089043          120    21970.886    18758.426   -35668.981    676.02695   -828.38569    1431.3634    72.335199    62.644121    36.089043    1686.7774   -311795.27 
    2080    319.61238    163535.56    72.335579     72.33558    36.089232          120    21372.201    18655.289   -36248.234    828.55314   -297.70254    1534.5258    72.335579     62.64445    36.089232     1259.752   -311787.12 
    2090    322.50931    163538.68    72.336039     72.33604    36.089462          120    20952.067    17589.965   -35938.113     1303.535   -248.96697     1409.901    72.336039    62.644848    36.089462    867.97319   -311792.02 
    2100    323.84695    163542.16    72.336552    72.336553    36.089718          120    20762.655    17541.526   -35792.673     806.7527   -231.66123    1555.1352    72.336552    62.645293    36.089718    837.16948   -311793.17 
    2110    322.72921    163545.98    72.337115    72.337115    36.089998          120    21091.347    18134.774   -36359.201    781.19521   -19.777722    1754.2795    72.337115     62.64578    36.089998     955.6397   -311789.33 
    2120    321.04911    163550.17    72.337733    72.337733    36.090307          120    21406.583    18192.614   -36572.812    574.08197    225.27312    1948.2335    72.337733    62.646315    36.090307     1008.795   -311783.71 
    2130    322.55209    163554.73    72.338406    72.338407    36.090643          120    19844.362    18804.721   -35897.556    332.97172    351.34096    1669.8071    72.338406    62.646898    36.090643    917.17567   -311785.09 
    2140    324.67667    163559.67    72.339133    72.339134    36.091005          120     19701.25    19502.536   -35426.911    1038.2431   -541.47424    1385.0149    72.339133    62.647527    36.091005     1258.958   -311787.57 
    2150     325.8997    163565.06    72.339929    72.339929    36.091402          120     20030.78    18573.275   -35559.264     1244.737   -898.97584    1994.6139    72.339929    62.648217    36.091402    1014.9304   -311788.29 
    2160    322.65478    163570.83    72.340778    72.340779    36.091826          120    19924.692    18333.972   -36140.719    1425.2187   -221.24906    2367.1935    72.340778    62.648952    36.091826    705.98169   -311780.28 
    2170    327.73748    163576.84    72.341665    72.341666    36.092269          120    20797.956    17103.941   -34892.221    1016.6005   -385.46004    1866.9928    72.341665     62.64972    36.092269    1003.2251   -311788.24 
    2180    324.76345     163583.2    72.342603    72.342603    36.092736          120    21148.428    17089.109   -35096.099    675.77458   -895.39119    2216.8955    72.342603    62.650532    36.092736    1047.1459   -311780.65 
    2190    326.45012     163589.9    72.343589     72.34359    36.093229          120    20513.733    17169.707   -36136.557    580.98133   -798.88599    2213.2797    72.343589    62.651387    36.093229    515.62743   -311782.03 
    2200    324.43114     163596.7    72.344592    72.344592    36.093729          120    19643.524    17103.728   -37254.446    712.70345    91.222334    1551.9134    72.344592    62.652255    36.093729   -169.06473   -311776.73 
    2210    329.63954    163603.28    72.345563    72.345563    36.094213          120    19856.908    15930.981   -37362.931    1346.8122   -182.32484    2215.8119    72.345563    62.653096    36.094213   -525.01383   -311784.53 
    2220    325.03095    163609.51    72.346481    72.346482    36.094671          120    20480.703    15830.073   -36619.906    1183.2753   -970.47219    2203.3055    72.346481    62.653891    36.094671   -103.04316   -311774.34 
    2230    327.22384    163615.57    72.347374    72.347374    36.095117          120    20963.384    16802.285   -36439.291    435.85224   -865.26579    1418.5229    72.347374    62.654664    36.095117    442.12569   -311777.09 
    2240     329.8401    163621.68    72.348274    72.348275    36.095566          120    20507.026    17260.684   -36125.226    535.75377   -107.24746    1196.9562    72.348274    62.655444    36.095566    547.49492    -311780.7 
    2250    327.94486    163627.89    72.349189     72.34919    36.096022          120    19750.905    17086.202   -37149.429    493.03701    560.45893    1326.5143    72.349189    62.656236    36.096022   -104.10737   -311775.89 
    2260    328.50876    163633.94    72.350082    72.350083    36.096468          120    19819.112    17337.431   -37945.671     397.1746    227.07356    1650.6226    72.350082     62.65701    36.096468   -263.04254   -311775.54 
[...]
   99200    322.32481    163966.38    72.399044    72.399045    36.120896          120      20805.9     16428.36   -38719.643    1297.2033   -1285.4043    1099.7012    72.399044    62.699412    36.120896   -495.12755   -311842.04 
   99210    326.68398    163965.82    72.398962    72.398962    36.120855          120    20941.517    16201.739   -38543.754    1731.4202   -604.18457    969.08165    72.398962    62.699341    36.120855   -466.83253   -311849.85 
   99220    325.05281    163965.03    72.398846    72.398846    36.120797          120    21003.357    15965.121   -38594.376    1166.0637   -921.48597    1175.7222    72.398846     62.69924    36.120797   -541.96592   -311846.23 
   99230    324.98487    163963.99    72.398693    72.398693    36.120721          120    21442.634    15853.673   -38097.858    1251.7205   -288.28435    1181.0781    72.398693    62.699108    36.120721   -267.18351   -311845.66 
   99240    325.85333     163962.8    72.398518    72.398518    36.120633          120    21044.259    16151.534   -37645.216    1521.6361    -134.7841    1090.8669    72.398518    62.698956    36.120633   -149.80792   -311846.43 
   99250    325.59663    163961.52    72.398329     72.39833    36.120539          120    20615.235    16438.233   -38136.988     1456.638   -96.087385    1701.4806    72.398329    62.698793    36.120539   -361.17335   -311845.36 
   99260    322.05016    163960.09    72.398118    72.398118    36.120434          120    20437.893    17145.231   -37556.835    1936.5923   -295.70994     1249.602    72.398118     62.69861    36.120434    8.7632435   -311838.64 
   99270    321.90921    163958.65    72.397907    72.397907    36.120328          120    20740.203    17739.806   -36901.543    2004.2594   -703.41863    866.56556    72.397907    62.698427    36.120328     526.1554   -311837.52 
   99280    326.15324    163957.44    72.397727    72.397728    36.120239          120    20854.793    16473.803   -36160.898    1803.5082   -649.13426    940.55172    72.397727    62.698272    36.120239    389.23284   -311845.17 
   99290    326.95015    163956.41    72.397577    72.397577    36.120164          120    21562.961    15698.928   -36648.438    2314.4638   -1097.2278      1123.36    72.397577    62.698141    36.120164    204.48347   -311845.82 
   99300    324.33427    163955.52    72.397445    72.397446    36.120098          120    22617.435    16182.378   -37305.152    1663.2603   -1159.8688    896.52163    72.397445    62.698027    36.120098    498.22012   -311839.98 
   99310    328.60087    163954.87     72.39735    72.397351    36.120051          120    22816.461    16797.257   -36982.288    1297.3444   -725.40546    438.37231     72.39735    62.697945    36.120051    877.14337   -311847.87 
   99320    326.20472    163954.57    72.397306    72.397307    36.120029          120    21742.049    16013.964   -38224.452    969.58264   -953.50539    -66.73057    72.397306    62.697907    36.120029   -156.14635   -311842.93 
   99330    325.59204    163954.23    72.397256    72.397256    36.120004          120    20991.212    16044.512   -38326.084    963.62921   -331.87159   -105.72438    72.397256    62.697863    36.120004    -430.1199   -311841.41 
   99340    326.86994     163953.7    72.397177    72.397178    36.119964          120    21481.669     16553.95    -38585.83    560.91936   -475.03015     106.2486    72.397177    62.697795    36.119964   -183.40359   -311842.89 
   99350    325.91934    163953.06    72.397083    72.397084    36.119917          120    21145.202    16214.572   -37911.181    1035.6522   -1003.7434    358.85921    72.397083    62.697714    36.119917   -183.80235   -311840.28 
   99360    324.68377    163952.35    72.396979     72.39698    36.119866          120    21541.992    16343.039   -36864.639     1354.477   -705.94022    832.35732    72.396979    62.697624    36.119866    340.13085   -311837.45 
   99370    327.96571    163951.81    72.396899      72.3969    36.119826          120    22109.977    16754.413   -35795.995    1550.1468   -1028.7612      1121.01    72.396899    62.697555    36.119826    1022.7984   -311843.75 
   99380    327.62889    163951.72    72.396886    72.396887    36.119819          120    22213.308    16542.185   -36077.017     1461.183   -1025.5645    391.90988    72.396886    62.697543    36.119819    892.82534   -311843.35 
   99390    325.41183    163952.04    72.396934    72.396934    36.119843          120    20919.087    16654.592   -36727.164    1901.2139   -1570.2575     878.3998    72.396934    62.697584    36.119843    282.17167   -311838.77 
   99400    325.39087    163952.53    72.397006    72.397006    36.119879          120    21243.795    16576.966   -37197.166    2259.0885   -1154.4301    1471.4851    72.397006    62.697647    36.119879    207.86511   -311839.16 
   99410     326.0093    163953.08    72.397086    72.397087    36.119919          120    21137.166    16373.575   -38825.161    2611.5187   -1840.0906    619.15487    72.397086    62.697716    36.119919    -438.1398   -311840.24 
   99420    327.06132    163953.46    72.397141    72.397142    36.119947          120    20967.421    16324.274   -38283.231    2279.7422   -1193.6947    416.65819    72.397141    62.697764    36.119947    -330.5122   -311842.64 
   99430    324.70816    163953.71    72.397179     72.39718    36.119965          120    21966.478    17144.248   -37083.421      1775.33    159.02942    511.69862    72.397179    62.697797    36.119965    675.76842   -311837.94 
   99440    326.09313    163954.27    72.397261    72.397262    36.120006          120    23239.047    17085.172   -36197.109     1666.445   -5.8091764    24.492822    72.397261    62.697868    36.120006    1375.7033   -311840.62 
   99450    328.52762    163955.47    72.397438    72.397439    36.120095          120    23550.567    17012.784   -36094.799     1427.704    6.5142747    117.07387    72.397438    62.698021    36.120095    1489.5172   -311845.04 
   99460    325.38288    163957.38     72.39772     72.39772    36.120235          120    23240.816    16833.652   -36731.492      1939.53   -448.61837    471.03394     72.39772    62.698265    36.120235    1114.3252   -311839.21 
   99470    324.23214    163959.82    72.398078    72.398079    36.120414          120     22135.17     17033.56   -38235.953    2139.9086   -801.63052    192.04761    72.398078    62.698575    36.120414    310.92562   -311837.63 
   99480    327.13276    163962.39    72.398457    72.398458    36.120603          120    21349.115    16191.717   -39321.863     1607.345   -770.17677    999.09045    72.398457    62.698904    36.120603   -593.67687   -311843.36 
   99490    324.66207    163964.73    72.398801    72.398801    36.120774          120    21095.765    16499.162   -39850.285    1664.9726   -1286.0666     1669.629    72.398801    62.699201    36.120774   -751.78586   -311839.48 
   99500    326.49337    163966.73    72.399095    72.399096    36.120921          120    21743.048    16253.232   -38838.827    1161.3737   -686.07674    993.72766    72.399095    62.699456    36.120921   -280.84896   -311843.47 
   99510     323.9118     163968.6    72.399371    72.399371    36.121059          120    22011.484     16819.86    -37413.75    1204.3076   -572.00582    489.85397    72.399371    62.699695    36.121059    472.53111   -311839.37 
   99520    328.48824    163970.66    72.399674    72.399674     36.12121          120    21971.986    17234.796   -37275.403    1416.7319   -525.17842    886.79313    72.399674    62.699957     36.12121    643.79279    -311849.1 
   99530     321.8037    163973.04    72.400024    72.400024    36.121385          120    21894.128    17767.181   -37269.318     1248.856   -754.81516    413.46047    72.400024     62.70026    36.121385    797.33016   -311837.59 
   99540    326.73999    163975.76    72.400424    72.400424    36.121584          120    21166.459    16766.385   -37651.497    1613.2611   -371.67617    139.77413    72.400424    62.700607    36.121584    93.782293   -311848.26 
   99550    323.81283    163978.56    72.400837    72.400838     36.12179          120    20916.732    15714.687   -36316.036    615.93736    751.74984    216.64639    72.400837    62.700965     36.12179    105.12758   -311844.17 
   99560    322.45278    163981.41    72.401256    72.401257    36.121999          120    20656.137    15960.438   -36582.955    481.62955    55.104889    384.14714    72.401256    62.701328    36.121999    11.206945   -311842.71 
   99570    322.27807    163984.28    72.401678    72.401678     36.12221          120    21259.173     16116.43   -37567.941    681.56228   -467.95567    86.382469    72.401678    62.701693     36.12221   -64.112506   -311843.03 
   99580    324.39591    163987.07    72.402088    72.402089    36.122415          120    21160.211    15481.945    -38257.98    958.33235   -518.68705    486.89139    72.402088    62.702049    36.122415   -538.60804   -311848.25 
   99590    322.04609    163989.63    72.402466    72.402466    36.122603          120    20900.263    15813.045   -37301.662    1353.6666   -1364.6637    823.26655    72.402466    62.702375    36.122603   -196.11788   -311844.27 
   99600    323.70066    163992.07    72.402825    72.402826    36.122782          120    20723.031    15810.132   -37156.493    2006.3801   -1186.2695    7.0333921    72.402825    62.702687    36.122782   -207.77693   -311848.34 
   99610    322.44634    163994.37    72.403163    72.403164    36.122951          120    20077.506    15387.054    -39045.06    1884.1359    -244.5424    568.64611    72.403163    62.702979    36.122951   -1193.5002   -311846.55 
   99620    324.35937    163996.16    72.403427    72.403428    36.123083          120    20610.602    14997.243    -38381.56    1464.6706   -560.94846    956.41667    72.403427    62.703208    36.123083   -924.57159   -311850.93 
   99630    322.91478    163997.51    72.403625    72.403625    36.123181          120    20946.434    15111.221   -37694.539    1182.7371   -527.68435    540.17031    72.403625    62.703379    36.123181   -545.62781   -311848.88 
   99640    322.60552    163998.63     72.40379    72.403791    36.123264          120    22109.962    15802.752   -36822.357     1395.967   -676.97008    747.90615     72.40379    62.703522    36.123264    363.45271   -311848.07 
   99650    321.29087     163999.9    72.403977    72.403977    36.123357          120    22222.127    16077.109   -36211.819    2405.7463   -269.85355    70.154232    72.403977    62.703684    36.123357    695.80591   -311845.96 
   99660     321.5087    164001.45    72.404206    72.404206    36.123471          120     21634.98    15449.983   -37065.568    1672.0048   -289.75111    356.84776    72.404206    62.703882    36.123471    6.4649044   -311846.72 
   99670    324.73931    164003.03    72.404438    72.404439    36.123587          120    20619.544    15447.102   -37248.209    1816.1535   -377.53894     1268.637    72.404438    62.704084    36.123587   -393.85434   -311853.06 
   99680    321.49978    164004.45    72.404647    72.404648    36.123691          120    21223.039    16186.959   -37862.247    1625.9059    -497.1183    1257.3588    72.404647    62.704264    36.123691   -150.74972   -311846.46 
   99690     325.2706     164005.8    72.404846    72.404847     36.12379          120    21956.048    16606.626    -37546.88     1004.155   -858.24607    723.01869    72.404846    62.704437     36.12379    338.59811   -311853.53 
   99700    322.00848    164007.33    72.405071    72.405071    36.123903          120    22359.757    16414.974   -37039.695    944.22291   -975.18803    1090.1242    72.405071    62.704631    36.123903    578.34524    -311846.7 
   99710    323.06867    164009.14    72.405337    72.405338    36.124035          120    21759.764    16687.713   -36748.706    1435.0736   -897.78423    1325.8388    72.405337    62.704862    36.124035    566.25723   -311848.36 
   99720    323.55806     164011.2     72.40564     72.40564    36.124186          120    21198.631    16810.805   -37613.755    1366.4362   -132.75967    835.62055     72.40564    62.705124    36.124186    131.89384   -311848.54 
   99730    321.26689    164013.36    72.405957    72.405958    36.124345          120    21405.889    17495.064    -38027.66    1983.1965   -66.090462    1110.0518    72.405957    62.705399    36.124345    291.09767   -311844.13 
   99740    325.33613    164015.64    72.406294    72.406294    36.124513          120    21570.186    17632.873   -38167.769    2102.0163   -770.17573    861.99716    72.406294     62.70569    36.124513    345.09639   -311851.45 
   99750    325.41471    164018.11    72.406657    72.406658    36.124694          120    21174.554    18011.943   -37290.262    1647.0805   -849.47318    1085.1967    72.406657    62.706005    36.124694    632.07807   -311850.67 
   99760    321.45658    164020.91    72.407068    72.407069    36.124899          120    22266.819    17334.773   -36908.604    1444.9045   -1235.0255    798.90051    72.407068    62.706361    36.124899    897.66272   -311842.33 
   99770     324.0143    164024.08    72.407535    72.407536    36.125132          120    22262.223    16203.238   -38359.155    1331.2774   -2196.3204    691.33979    72.407535    62.706765    36.125132    35.435649   -311847.02 
   99780    322.73559     164027.3    72.408009     72.40801    36.125369          120    21535.465    15616.152   -38324.744     2116.201   -1265.5287    697.81409    72.408009    62.707176    36.125369   -391.04229   -311844.18 
   99790    321.32334    164030.32    72.408453    72.408454     36.12559          120    20977.825    15488.695   -39009.677    2698.8322   -754.94032    815.38137    72.408453    62.707561     36.12559   -847.71887   -311840.96 
   99800    326.48108    164032.96    72.408842    72.408843    36.125784          120    21459.435     15659.67   -38899.815    2054.1078   -949.34696    904.52839    72.408842    62.707898    36.125784   -593.56975   -311850.56 
   99810    324.13307    164035.34    72.409193    72.409193    36.125959          120    21550.623    16009.261   -37645.433    1593.1346   -1331.2434     531.8635    72.409193    62.708201    36.125959   -28.516286    -311844.7 
   99820    325.69333    164037.68    72.409536    72.409536     36.12613          120    21005.915     15784.02    -37208.35    1568.5421   -1111.8138    647.18773    72.409536    62.708498     36.12613   -139.47163   -311847.23 
   99830    325.36933    164039.95    72.409871    72.409871    36.126297          120    20957.403    16222.098    -37327.16    1179.9532   -607.11867    585.91924    72.409871    62.708788    36.126297    -49.21957   -311846.04 
   99840    325.35715     164042.2    72.410202    72.410203    36.126463          120    21001.497    16281.365   -37320.749    1255.5679   -331.56394    129.49545    72.410202    62.709075    36.126463   -12.628988   -311845.32 
   99850    324.80074    164044.44    72.410531    72.410532    36.126627          120    20776.013    15785.595   -37878.902    1577.4293    -188.2581    307.06188    72.410531     62.70936    36.126627   -439.09778   -311843.42 
   99860      326.306    164046.47    72.410829     72.41083    36.126776          120    20518.979    15431.455   -38654.193    1460.1772   -1130.6025    215.01005    72.410829    62.709618    36.126776   -901.25262   -311846.14 
   99870    324.01936    164048.07    72.411065    72.411066    36.126893          120    20819.864    15138.385   -39135.836    1701.5144   -1893.4702    754.23657    72.411065    62.709822    36.126893   -1059.1957   -311841.38 
   99880    327.18713    164049.18    72.411228    72.411229    36.126975          120    20113.313     16215.59   -38979.778    1565.8969   -1307.6775     1182.835    72.411228    62.709964    36.126975   -883.62492   -311847.52 
   99890    325.20877    164049.85    72.411327    72.411328    36.127024          120    19939.852    15355.878   -38378.893    888.18857   -1356.1765    160.61638    72.411327    62.710049    36.127024   -1027.7212   -311843.31 
   99900    324.12651    164049.99    72.411348    72.411348    36.127034          120    19670.451    14796.633   -39686.924    997.00707   -497.89414     120.0975    72.411348    62.710067    36.127034   -1739.9465   -311841.22 
   99910    323.36994     164049.3    72.411247    72.411247    36.126984          120    18981.106    14932.984   -39374.987    1160.0465   -113.22632   -25.698243    72.411247     62.70998    36.126984    -1820.299   -311840.29 
   99920    325.00674    164047.73    72.411015    72.411015    36.126868          120    19635.668    14324.474   -39269.166    956.90514   -84.818891   -144.90378    72.411015    62.709779    36.126868   -1769.6748   -311842.91 
   99930    325.64791    164045.29    72.410656    72.410657    36.126689          120    19487.203    14670.956   -39358.018    1005.7101    366.40858    778.23946    72.410656    62.709468    36.126689   -1733.2861   -311844.34 
   99940    323.80212    164042.04    72.410177    72.410178     36.12645          120    19657.727    15487.009   -38606.094    1804.7024   -175.69955    1422.6022    72.410177    62.709054     36.12645   -1153.7863   -311840.86 
   99950    327.59151    164038.24    72.409618    72.409619    36.126171          120    20508.507     16052.98   -37477.809    1780.7285   -932.04341    1390.2528    72.409618    62.708569    36.126171   -305.44068   -311847.94 
   99960    324.87249    164034.25    72.409032    72.409033    36.125879          120    21031.459    16112.928   -37776.178    2293.5184   -1524.8419    1124.8317    72.409032    62.708062    36.125879   -210.59733   -311843.04 
   99970    324.37928    164030.16     72.40843    72.408431    36.125579          120    20214.155    15592.671   -37074.892    1741.4535   -997.22333    620.11253     72.40843    62.707541    36.125579   -422.68851   -311842.13 
   99980    326.24233    164025.87    72.407799    72.407799    36.125264          120    20266.132    15750.866   -37456.388    1075.3071   -1010.8304     605.1715    72.407799    62.706994    36.125264   -479.79685   -311845.41 
   99990    325.85407    164021.35    72.407133    72.407134    36.124931          120    20507.251    16416.286    -38239.49    774.86608   -1271.0897    1232.3245    72.407133    62.706417    36.124931   -438.65109   -311843.89 
  100000    322.46693     164016.6    72.406435    72.406435    36.124583          120    20793.176    16765.509   -38441.647    1248.6928   -590.00746   -2.8759059    72.406435    62.705812    36.124583   -294.32091    -311837.7 
Loop time of 29988.6 on 1 procs for 100000 steps with 14848 atoms

Performance: 0.288 ns/day, 83.302 hours/ns, 3.335 timesteps/s
100.0% CPU use with 1 MPI tasks x no OpenMP threads

MPI task timing breakdown:
Section |  min time  |  avg time  |  max time  |%varavg| %total
---------------------------------------------------------------
Pair    | 24400      | 24400      | 24400      |   0.0 | 81.36
Bond    | 0.013145   | 0.013145   | 0.013145   |   0.0 |  0.00
Kspace  | 1107.9     | 1107.9     | 1107.9     |   0.0 |  3.69
Neigh   | 3808.4     | 3808.4     | 3808.4     |   0.0 | 12.70
Comm    | 37.951     | 37.951     | 37.951     |   0.0 |  0.13
Output  | 1.053      | 1.053      | 1.053      |   0.0 |  0.00
Modify  | 623.54     | 623.54     | 623.54     |   0.0 |  2.08
Other   |            | 9.966      |            |       |  0.03

Nlocal:    14848 ave 14848 max 14848 min
Histogram: 1 0 0 0 0 0 0 0 0 0
Nghost:    46742 ave 46742 max 46742 min
Histogram: 1 0 0 0 0 0 0 0 0 0
Neighs:    1.00327e+07 ave 1.00327e+07 max 1.00327e+07 min
Histogram: 1 0 0 0 0 0 0 0 0 0

Total # of neighbors = 10032728
Ave neighs/atom = 675.696
Ave special neighs/atom = 0
Neighbor list builds = 13690
Dangerous builds = 0
 
All done!
Total wall time: 8:25:19
