LAMMPS (16 Mar 2018)
Reading data file ...
  triclinic box = (0 0 0) to (9.208 7.97436 18.376) with tilt (-4.604 0 0)
  1 by 1 by 1 MPI processor grid
  reading atoms ...
  116 atoms
Finding 1-2 1-3 1-4 neighbors ...
  special bond factors lj:   0          0          0         
  special bond factors coul: 0          0          0         
  0 = max # of 1-2 neighbors
  0 = max # of 1-3 neighbors
  0 = max # of 1-4 neighbors
  1 = max # of special neighbors
Replicating atoms ...
  triclinic box = (0 0 0) to (73.664 63.7949 36.752) with tilt (-36.832 0 0)
  1 by 1 by 1 MPI processor grid
  14848 atoms
Finding 1-2 1-3 1-4 neighbors ...
  special bond factors lj:   0          0          0         
  special bond factors coul: 0          0          0         
  0 = max # of 1-2 neighbors
  0 = max # of 1-3 neighbors
  0 = max # of 1-4 neighbors
  1 = max # of special neighbors
  Time spent = 0.00271797 secs
PPPM initialization ...
WARNING: System is not charge neutral, net charge = -0.2048 (../kspace.cpp:302)
  using 12-bit tables for long-range coulomb (../kspace.cpp:321)
  G vector (1/distance) = 0.201681
  grid = 36 50 24
  stencil order = 5
  estimated absolute RMS force accuracy = 0.00105653
  estimated relative force accuracy = 7.33721e-05
  using double precision FFTs
  3d grid and FFT values/proc = 65395 43200
Neighbor list info ...
  update every 1 steps, delay 0 steps, check yes
  max neighbors/atom: 2000, page size: 100000
  master list distance cutoff = 15.3
  ghost atom cutoff = 15.3
  binsize = 7.65, bins = 15 9 5
  3 neighbor lists, perpetual/occasional/extra = 3 0 0
  (1) pair morse, perpetual
      attributes: half, newton on
      pair build: half/bin/newton/tri
      stencil: half/bin/3d/newton/tri
      bin: standard
  (2) pair buck, perpetual, copy from (1)
      attributes: half, newton on
      pair build: copy
      stencil: none
      bin: none
  (3) pair lj/cut/coul/long, perpetual, copy from (1)
      attributes: half, newton on
      pair build: copy
      stencil: none
      bin: none
Setting up Verlet run ...
  Unit style    : metal
  Current step  : 0
  Time step     : 0.001
Per MPI rank memory allocation (min/avg/max) = 145.7 | 145.7 | 145.7 Mbytes
Step Temp Volume Cella Cellb Cellc CellGamma Pxx Pyy Pzz Pxy Pxz Pyz Lx Ly Lz Press PotEng 
       0          300    172711.88       73.664    73.664001       36.752          120   -207935.56   -207983.96   -278964.49    24.921216   -7.6308551     10.20218       73.664    63.794896       36.752      -231628   -309191.56 
      10    360.01667    172644.78    73.654459     73.65446     36.74724          120   -209393.61   -209480.64   -256547.68    118.52356   -23.860008   -175.71918    73.654459    63.786634     36.74724   -225140.64   -309337.86 
      20    629.77826    172447.81    73.626438    73.626439     36.73326          120   -205932.93   -205564.57   -196985.88    32.875948   -262.74329   -387.91409    73.626438    63.762366     36.73326    -202827.8   -309895.02 
      30    643.60651    172137.04    73.582184    73.582185    36.711181          120   -177704.67   -177310.19   -117606.87   -205.39556   -832.43568   -459.11362    73.582184    63.724041    36.711181   -157540.58    -309979.3 
      40    426.15137    171745.66    73.526374    73.526375    36.683337          120   -131431.84   -131653.49   -37772.779   -664.64598   -1147.9282   -492.01638    73.526374    63.675709    36.683337   -100286.04    -309602.7 
      50    513.60781    171317.36    73.465203    73.465204    36.652818          120   -90554.067   -91192.846    -5910.236   -683.59928   -1185.5727   -622.95426    73.465203    63.622733    36.652818   -62552.383   -309795.96 
      60    807.64863    170887.04    73.403642    73.403642    36.622104          120   -67294.169   -67150.433   -44461.907   -688.92358   -2045.1039   -455.03671    73.403642    63.569419    36.622104   -59635.503   -310391.07 
      70    978.99284    170469.88    73.343863    73.343864    36.592279          120   -52825.722   -52672.968   -107699.51   -1678.3464   -2433.7976   -525.48251    73.343863    63.517649    36.592279   -71066.066   -310779.67 
      80    841.94831    170069.36    73.286378    73.286378    36.563599          120   -44538.436   -45463.066   -153770.05   -1778.4558   -2850.1723    67.227747    73.286378    63.467866    36.563599   -81257.185   -310583.52 
      90    577.87653    169686.11    73.231285    73.231286    36.536113          120   -39421.882   -40169.907   -168131.42   -2014.4487   -3305.6191   -445.38469    73.231285    63.420154    36.536113   -82574.402   -310130.09 
     100    593.56592     169322.5    73.178941    73.178941    36.509997          120   -24080.872   -24292.869   -147790.98   -1761.6698   -3051.5391   -864.31558    73.178941    63.374822    36.509997   -65388.239   -310202.24 
     110     764.2274    168985.95    73.130424    73.130424    36.485791          120   -4363.6576    -4715.304   -105523.73    -1841.352   -1968.4907   -1043.7615    73.130424    63.332805    36.485791   -38200.898   -310577.57 
     120    773.24658    168684.67    73.086937    73.086938    36.464095          120    6606.5369    6556.6205   -55668.799   -1825.6107   -1398.3213   -1482.2982    73.086937    63.295145    36.464095   -14168.547    -310647.1 
     130    671.42174    168422.22    73.049014    73.049014    36.445175          120     5519.223    6600.3183   -16595.439   -1711.6912   -1315.6003   -1465.6398    73.049014    63.262302    36.445175   -1491.9658   -310497.61 
     140    622.32282    168195.69    73.016249     73.01625    36.428828          120    890.90564    692.14888     -3924.26   -1214.5763   -1100.2768   -1319.8985    73.016249    63.233927    36.428828   -780.40181   -310440.77 
     150    670.98506       167997    72.987485    72.987486    36.414477          120   -7114.4863   -6050.4879   -25572.636   -1879.0398   -836.86365   -673.34375    72.987485    63.209017    36.414477   -12912.537   -310572.56 
     160    732.41087    167813.83     72.96095     72.96095    36.401238          120   -17343.953     -15851.4   -60707.926   -1680.8183   -1211.3453   -766.54555     72.96095    63.186037    36.401238   -31301.093   -310738.35 
     170    718.39626    167633.27    72.934772    72.934773    36.388178          120   -22232.186   -20167.467   -91036.212   -811.76429   -2094.5057   -1072.7266    72.934772    63.163366    36.388178   -44478.622   -310763.99 
     180    643.80128    167446.74    72.907711    72.907711    36.374677          120   -19692.785   -17626.254    -108873.1   -766.55479    -2407.773   -1297.9532    72.907711     63.13993    36.374677   -48730.712   -310670.98 
     190    616.55849    167251.49    72.879361    72.879361    36.360533          120   -15074.956   -13701.848   -108243.25   -120.79552     -1940.77   -1369.6896    72.879361    63.115379    36.360533    -45673.35   -310663.85 
     200    651.86212    167049.26    72.849976    72.849977    36.345872          120   -10690.551   -9997.8779   -89646.393   -738.50386   -1981.5803   -1267.1761    72.849976    63.089931    36.345872   -36778.274   -310776.36 
     210    660.85467    166844.92     72.82026    72.820261    36.331046          120    -5890.946   -5325.6967   -66402.937   -1050.1973   -1633.9104   -956.49914     72.82026    63.064196    36.331046   -25873.193   -310840.28 
     220    640.29099    166644.23    72.791051    72.791051    36.316473          120   -2369.8002   -1331.5386   -47313.619   -992.80803   -1169.6659   -2112.6471    72.791051      63.0389    36.316473   -17004.986   -310844.78 
     230    617.56488    166451.44     72.76297     72.76297    36.302463          120   -2062.8207   -1310.3284   -39228.454   -707.85639    -808.7302   -2879.9476     72.76297    63.014581    36.302463   -14200.534   -310843.24 
     240    616.12255    166267.57    72.736167    72.736167    36.289091          120   -4287.4633   -3366.0543   -42722.353   -423.61988   -1668.8074   -2724.8634    72.736167    62.991369    36.289091   -16791.957   -310881.44 
     250    628.98452    166090.75    72.710374    72.710375    36.276223          120   -6684.1326   -6453.1405   -55882.133    76.549404   -1785.8344   -2589.7384    72.710374    62.969032    36.276223   -23006.469   -310949.81 
     260    627.35065    165917.54    72.685089    72.685089    36.263607          120   -7701.2608   -8704.0468   -70555.263    410.96288   -1450.0959   -3055.6265    72.685089    62.947134    36.263607   -28986.857   -310991.74 
     270    604.27051    165744.92    72.659874    72.659874    36.251027          120   -6719.9268   -8150.2111   -78630.199   -97.238349   -1350.5703   -2040.8492    72.659874    62.925297    36.251027   -31166.779   -310991.76 
     280    582.57926    165572.01    72.634598    72.634598    36.238417          120   -4927.3416    -5174.666   -78341.531   -204.00485   -901.95908   -1179.6271    72.634598    62.903407    36.238417   -29481.179   -310992.11 
     290     583.1403       165400    72.609436    72.609437    36.225863          120   -1790.0535   -558.41745   -69833.854    125.75752   -982.05271   -1326.1901    72.609436    62.881617    36.225863   -24060.775   -311033.61 
     300    584.09354    165231.76    72.584809     72.58481    36.213577          120    2483.8681    3295.9934   -57520.871    56.106123   -1108.5329   -1287.2497    72.584809    62.860289    36.213577   -17247.003   -311074.68 
     310    575.54229    165070.57    72.561198    72.561198    36.201797          120    5215.8019    5751.7372   -44368.952    288.93817   -654.85613   -1547.2402    72.561198    62.839841    36.201797   -11133.804   -311096.95 
     320    564.38503    164918.91     72.53897     72.53897    36.190707          120    6294.8068    6916.1786   -35662.168    728.81515   -1090.2429   -1860.3513     72.53897    62.820591    36.190707   -7483.7275   -311112.58 
     330    558.35531    164777.72    72.518262    72.518263    36.180375          120    5543.7431    6013.7554   -35160.031    170.64642   -825.79485   -1868.3368    72.518262    62.802658    36.180375   -7867.5108   -311137.26 
     340    554.33384    164645.85    72.498912    72.498912    36.170721          120    3679.8029     5227.168   -42265.923   -67.207529    -431.6832    -1841.598    72.498912      62.7859    36.170721   -11119.651   -311166.08 
     350    546.84728    164520.79    72.480552    72.480553    36.161561          120    3127.1855    3725.4522   -52494.017    244.17027    440.55256   -1474.2386    72.480552        62.77    36.161561   -15213.793    -311187.7 
     360    530.81891    164399.89    72.462793    72.462794    36.152701          120    3741.9509    4414.8945   -60056.329   -140.43634    184.17614   -1604.6015    72.462793     62.75462    36.152701   -17299.828   -311191.14 
     370    520.74145    164281.64    72.445415    72.445416    36.144031          120    5025.8226    6343.1609   -61189.283   -467.08369    -1121.382   -1744.4749    72.445415    62.739571    36.144031   -16606.766   -311205.78 
     380    516.93851    164166.08    72.428425    72.428425    36.135554          120    6983.7282    9201.9228   -56240.456   -1222.5386   -934.01314   -1814.0023    72.428425    62.724856    36.135554   -13351.602   -311231.32 
     390    513.33777    164054.39    72.411996    72.411996    36.127357          120    9336.7108    10595.814   -48321.254    -1592.345   -1109.4332   -1982.1378    72.411996    62.710628    36.127357   -9462.9097   -311256.61 
     400    501.91817    163948.12    72.396357    72.396357    36.119555          120    12383.225    12721.854   -39454.826   -501.57774    -1427.047   -1331.0005    72.396357    62.697085    36.119555   -4783.2488   -311265.51 
     410    498.28503    163848.89    72.381748    72.381748    36.112266          120    12756.022    14480.484   -33559.446   -82.694739   -1042.3943   -1967.9493    72.381748    62.684433    36.112266   -2107.6465   -311288.97 
     420      496.178    163757.27    72.368253    72.368253    36.105534          120    12269.613    14078.134   -32977.363    442.92268   -307.42947    -1955.385    72.368253    62.672746    36.105534   -2209.8721   -311314.87 
     430    488.29371    163672.41     72.35575    72.355751    36.099296          120    11556.156    12485.712   -36593.823     625.3345    -823.8927   -912.03062     72.35575    62.661919    36.099296   -4183.9851   -311328.91 
     440    482.79115    163592.71    72.344004    72.344005    36.093436          120     11633.09    11702.505   -41714.874    194.44383   -980.88073   -811.12945    72.344004    62.651746    36.093436   -6126.4264    -311347.1 
     450    474.29771    163516.65    72.332791    72.332792    36.087841          120    12077.118    11924.444   -46245.016    355.70083   -632.74537   -1723.3677    72.332791    62.642036    36.087841   -7414.4843    -311358.8 
     460    465.74286    163443.24    72.321965    72.321966     36.08244          120    12967.214    13507.886    -47524.53    664.99702    104.22741   -1382.0736    72.321965     62.63266     36.08244   -7016.4767   -311370.14 
     470    459.08463    163372.33    72.311505    72.311505    36.077221          120    14285.458    14929.922   -45809.124    555.78003    920.57214   -1389.5629    72.311505    62.623601    36.077221   -5531.2483   -311383.68 
     480    455.71112    163304.36    72.301475    72.301475    36.072217          120    15744.852    15587.721   -41449.875    288.49954    679.25215    75.875431    72.301475    62.614915    36.072217   -3372.4341   -311402.54 
     490    450.36665    163240.07    72.291986    72.291986    36.067483          120    15976.972    16841.738   -36064.555    56.294827     646.1183    446.63189    72.291986    62.606697    36.067483   -1081.9482   -311417.07 
     500     443.1025    163180.23    72.283151    72.283152    36.063075          120    17348.697    18049.812   -31978.972   -200.53219    1230.3499    325.88863    72.283151    62.599046    36.063075    1139.8456   -311427.83 
     510    440.35976    163125.45    72.275061    72.275062    36.059039          120    17861.744    18067.114   -31154.545   -661.43444    1608.3209    665.41841    72.275061     62.59204    36.059039    1591.4376   -311445.93 
     520    432.75692    163075.48    72.267681    72.267682    36.055357          120    17469.248    17007.256   -33742.865   -505.18926    1438.2482    94.860206    72.267681    62.585648    36.055357    244.54648   -311454.58 
     530    426.25841    163029.33    72.260863    72.260863    36.051955          120    17405.483    16122.798   -36638.965   -475.43491    894.30629   -215.35167    72.260863    62.579744    36.051955   -1036.8946   -311465.22 
     540    424.01471    162986.02    72.254463    72.254464    36.048762          120    17566.035    16691.381   -39704.407    3.1551174    931.28702   -916.75523    72.254463    62.574201    36.048762   -1815.6638   -311482.88 
     550    419.29766    162944.92    72.248389    72.248389    36.045732          120    18236.626    17286.552   -40547.378    142.11983    736.12225   -1102.8363    72.248389    62.568941    36.045732   -1674.7334   -311495.61 
     560    414.20408    162905.86    72.242616    72.242616    36.042852          120    17853.635    18266.103   -39043.281     183.1173    759.89879   -393.21635    72.242616    62.563941    36.042852   -974.51422   -311507.19 
     570    410.68225    162869.05    72.237174    72.237174    36.040136          120    19194.114    19289.434   -36354.326      81.3414    889.75924    81.621286    72.237174    62.559228    36.040136    709.74095    -311521.9 
     580    405.45289    162835.12    72.232157    72.232158    36.037634          120    21046.929    20252.523   -32957.046   -182.10023    1119.8511    19.417696    72.232157    62.554884    36.037634    2780.8022   -311532.45 
     590    399.19718    162804.81    72.227676    72.227677    36.035398          120    20842.414    21253.196    -30835.22    -535.3296    1211.2836   -253.82112    72.227676    62.551003    36.035398    3753.4634   -311539.89 
     600    393.46478    162778.34    72.223761    72.223762    36.033445          120    20523.887    21168.082   -31095.287   -204.00041    1399.6063    60.154991    72.223761    62.547612    36.033445    3532.2271   -311547.81 
     610    389.22389    162755.34    72.220359    72.220359    36.031747          120    20856.229    20860.194   -33147.228   -210.21722     1876.685   -533.63285    72.220359    62.544666    36.031747    2856.3983   -311558.56 
     620    388.84608    162735.22    72.217383    72.217383    36.030263          120    20838.224    21145.876   -35659.615    -283.5517    1942.1259    -567.7379    72.217383    62.542089    36.030263    2108.1616   -311576.34 
     630    389.02549    162717.41    72.214749     72.21475    36.028948          120    21041.614     20357.06   -37147.375   -181.07818    1506.7485   -530.47765    72.214749    62.539808    36.028948    1417.0995   -311595.59 
     640    385.14093    162701.47     72.21239    72.212391    36.027772          120    22155.985    19824.468   -36675.095   -71.631768    1339.5961   -836.13982     72.21239    62.537765    36.027772    1768.4528   -311605.94 
     650    375.62216    162687.42    72.210312    72.210312    36.026735          120    22222.116     21403.72   -34871.958   -127.38149    931.60154   -878.70859    72.210312    62.535965    36.026735    2917.9594   -311604.74 
     660     370.3956    162675.66    72.208571    72.208572    36.025866          120    22823.203    21600.205   -33030.598    294.91625    419.75422   -1369.3427    72.208571    62.534458    36.025866    3797.6036   -311611.84 
     670    368.44379    162666.51    72.207217    72.207218    36.025191          120    22964.776    21573.779    -30410.23     177.1252    244.36691   -1029.1052    72.207217    62.533285    36.025191    4709.4416   -311624.62 
     680    366.52553     162660.2    72.206285    72.206285    36.024725          120    22166.953    21745.713   -29987.077    256.97489    672.40746   -213.98976    72.206285    62.532477    36.024725    4641.8631   -311637.28 
     690    359.98493    162656.59     72.20575     72.20575    36.024459          120    22402.446    21930.812   -31602.389    490.44203    965.85788   -27.343983     72.20575    62.532014    36.024459     4243.623   -311639.59 
     700    354.97158    162655.28    72.205556    72.205557    36.024362          120    22026.265    21214.077   -33291.034    532.46153    1156.2184   -90.449158    72.205556    62.531846    36.024362    3316.4362   -311645.43 
     710    354.91895     162655.7    72.205618    72.205619    36.024393          120    21269.495    20489.597   -34259.097    491.12647    843.31844    269.63318    72.205618      62.5319    36.024393    2499.9983   -311659.72 
     720     352.4516    162657.39    72.205868    72.205869    36.024518          120    22221.116    20820.127   -35080.787    504.98202     1003.622    -278.8326    72.205868    62.532117    36.024518    2653.4856   -311669.35 
     730    347.60332    162660.33    72.206304    72.206305    36.024735          120    22758.699    21281.105   -34557.592    269.49031    745.51037   -792.44788    72.206304    62.532494    36.024735    3160.7372   -311673.48 
     740    345.38312    162664.68    72.206947    72.206947    36.025056          120    21960.184    21388.192   -33690.934   -70.256028    987.86601    -758.8218    72.206947    62.533051    36.025056    3219.1473   -311682.35 
     750      341.457    162670.43    72.207797    72.207798     36.02548          120    21516.164    21315.065   -32467.609      21.3397    1417.7327   -70.997927    72.207797    62.533787     36.02548    3454.5402   -311687.72 
     760    340.31266     162677.6    72.208858    72.208859    36.026009          120    21455.025    21620.214   -32064.861   -179.01657    806.22194   -62.859265    72.208858    62.534706    36.026009    3670.1261   -311698.29 
     770    335.90597    162686.24    72.210137    72.210137    36.026647          120    21999.502    21511.315   -31905.073   -72.873547    912.25447   -381.11867    72.210137    62.535814    36.026647    3868.5817   -311701.91 
     780     338.1993    162696.36    72.211635    72.211635    36.027395          120    21942.612    21309.828    -32409.66   -307.36013     1168.287    637.50658    72.211635    62.537111    36.027395    3614.2601   -311718.48 
     790    331.03273    162707.77    72.213322    72.213323    36.028237          120     21940.79    20336.035   -32973.644   -55.213815    1040.1275    529.40679    72.213322    62.538572    36.028237    3101.0603   -311716.38 
     800    328.65208    162720.13    72.215151    72.215151    36.029149          120    21435.326    19762.237   -34350.511    344.43539     1198.894    928.64693    72.215151    62.540156    36.029149    2282.3505    -311723.5 
     810    325.28605    162733.03    72.217059    72.217059    36.030101          120    21475.535    19400.422    -35606.89     282.5449    1562.7574    1090.5433    72.217059    62.541808    36.030101    1756.3556   -311727.92 
     820    324.59414    162746.17    72.219003    72.219003    36.031071          120    20729.274    19527.501    -36140.17     352.1894    1444.7149    835.12164    72.219003    62.543492    36.031071    1372.2016   -311737.23 
     830    321.78645    162759.37    72.220955    72.220956    36.032045          120    21231.575    19079.321   -35932.876    230.77991    2034.8365    438.30477    72.220955    62.545183    36.032045    1459.3399   -311742.46 
     840    317.27419    162772.69    72.222925    72.222926    36.033028          120    22110.841    19433.373   -34859.953    414.73436    2324.5969    89.042204    72.222925    62.546889    36.033028    2228.0871   -311744.02 
     850    316.34528    162786.47    72.224963    72.224964    36.034044          120    21949.845    20122.273   -33788.331    473.93741    2813.4699    -104.8187    72.224963    62.548653    36.034044    2761.2625   -311751.91 
     860    312.99629    162800.96    72.227106    72.227107    36.035114          120    21901.686    19931.886    -32779.05    490.29537    2438.3774   -44.282281    72.227106     62.55051    36.035114    3018.1742   -311754.01 
     870    310.49649    162816.26    72.229369    72.229369    36.036242          120    22129.164    20166.234   -33951.069    569.96987    1954.8364    123.27603    72.229369    62.552469    36.036242     2781.443   -311757.69 
     880    311.70403     162832.2    72.231725    72.231726    36.037418          120    21862.791    19921.264   -35886.172    218.38174    1668.1372    742.71421    72.231725     62.55451    36.037418    1965.9612      -311769 
     890    307.42361    162848.42    72.234124    72.234124    36.038615          120     21236.51    20567.477   -36143.198     15.50406    902.90432    1144.4668    72.234124    62.556587    36.038615    1886.9299   -311768.51 
     900      303.293    162864.78    72.236543    72.236544    36.039822          120    20952.473    19396.365   -36975.897    170.20951    905.51218    450.13552    72.236543    62.558682    36.039822    1124.3139   -311768.02 
     910    301.75306    162880.97    72.238937    72.238937    36.041016          120    20664.157    18767.538   -37016.663    159.61962    952.42823    407.78546    72.238937    62.560755    36.041016    805.01037    -311772.6 
     920    303.04312    162896.85    72.241285    72.241285    36.042187          120    20751.068    18785.043   -36395.827   -48.983206    863.26513    840.44759    72.241285    62.562788    36.042187    1046.7613   -311781.66 
     930    301.52504    162912.52    72.243601    72.243601    36.043343          120    20728.783    18562.197   -36457.008    32.146762    833.16421    872.62742    72.243601    62.564794    36.043343    944.65719   -311784.82 
     940    299.91761    162927.93    72.245879    72.245879     36.04448          120    19891.956    18069.148   -35933.639    561.88071    1337.8034    264.27989    72.245879    62.566767     36.04448    675.82141   -311788.73 
     950    298.92086    162943.05    72.248113    72.248114    36.045594          120    20667.591    19000.572   -35161.221    1090.9987    1423.2103    92.961181    72.248113    62.568702    36.045594    1502.3142   -311792.36 
     960    296.97749     162958.2    72.250352    72.250352    36.046711          120    21066.362    19321.551   -35922.038    1413.4615    1805.4382    914.47613    72.250352     62.57064    36.046711     1488.625   -311794.15 
     970    298.18621     162973.4    72.252599    72.252599    36.047832          120    20705.804    18719.059   -36754.305    1491.6359    1875.0163    1002.5993    72.252599    62.572587    36.047832    890.18582   -311802.26 
     980    298.67603    162988.35    72.254808    72.254808    36.048934          120    20160.287    17730.639   -38211.293    900.57607    1703.3058    1157.3653    72.254808      62.5745    36.048934   -106.78877    -311808.5 
     990    291.00464    163002.62    72.256917    72.256918    36.049987          120    20023.421    17549.975   -38833.073    534.95982    1588.4183    699.99782    72.256917    62.576326    36.049987   -419.89195    -311798.6 
    1000    291.02741    163016.05      72.2589    72.258901    36.050976          120    19411.338    18103.321   -39369.983    72.026937    1336.8287    752.49588      72.2589    62.578044    36.050976   -618.44151   -311802.22 
Loop time of 302.01 on 1 procs for 1000 steps with 14848 atoms

Performance: 0.286 ns/day, 83.892 hours/ns, 3.311 timesteps/s
100.0% CPU use with 1 MPI tasks x no OpenMP threads

MPI task timing breakdown:
Section |  min time  |  avg time  |  max time  |%varavg| %total
---------------------------------------------------------------
Pair    | 237.36     | 237.36     | 237.36     |   0.0 | 78.60
Bond    | 0.0001235  | 0.0001235  | 0.0001235  |   0.0 |  0.00
Kspace  | 10.832     | 10.832     | 10.832     |   0.0 |  3.59
Neigh   | 46.928     | 46.928     | 46.928     |   0.0 | 15.54
Comm    | 0.42095    | 0.42095    | 0.42095    |   0.0 |  0.14
Output  | 0.010464   | 0.010464   | 0.010464   |   0.0 |  0.00
Modify  | 6.3468     | 6.3468     | 6.3468     |   0.0 |  2.10
Other   |            | 0.1065     |            |       |  0.04

Nlocal:    14848 ave 14848 max 14848 min
Histogram: 1 0 0 0 0 0 0 0 0 0
Nghost:    46854 ave 46854 max 46854 min
Histogram: 1 0 0 0 0 0 0 0 0 0
Neighs:    1.00959e+07 ave 1.00959e+07 max 1.00959e+07 min
Histogram: 1 0 0 0 0 0 0 0 0 0

Total # of neighbors = 10095932
Ave neighs/atom = 679.952
Ave special neighs/atom = 0
Neighbor list builds = 170
Dangerous builds = 0
PPPM initialization ...
  using 12-bit tables for long-range coulomb (../kspace.cpp:321)
  G vector (1/distance) = 0.202626
  grid = 36 50 24
  stencil order = 5
  estimated absolute RMS force accuracy = 0.000996344
  estimated relative force accuracy = 6.91923e-05
  using double precision FFTs
  3d grid and FFT values/proc = 65395 43200
Setting up Verlet run ...
  Unit style    : metal
  Current step  : 0
  Time step     : 0.001
Per MPI rank memory allocation (min/avg/max) = 151.5 | 151.5 | 151.5 Mbytes
Step Temp Volume Cella Cellb Cellc CellGamma Pxx Pyy Pzz Pxy Pxz Pyz Lx Ly Lz Press PotEng 
       0    291.02741    163016.05      72.2589    72.258901    36.050976          120    19423.949    18116.014    -39363.08    72.547669    1336.7509    752.47309      72.2589    62.578044    36.050976   -607.70566   -311802.04 
      10    291.29072    163028.62    72.260757    72.260758    36.051902          120    19825.964    18293.076   -37816.736     83.21173    411.01173    1397.6865    72.260757    62.579652    36.051902    100.76799   -311806.57 
      20    291.08682    163040.66    72.262537    72.262537     36.05279          120     19651.55    18600.856   -36533.403    793.22514   -515.24859    1069.8703    72.262537    62.581193     36.05279    573.00087    -311809.6 
      30    290.40912    163052.46     72.26428    72.264281     36.05366          120    19894.956    17961.184   -35826.193    1271.2526    61.396152    496.72642     72.26428    62.582703     36.05366    676.64897    -311811.6 
      40    290.72392    163064.08    72.265996    72.265997    36.054516          120    20030.086    16965.564   -36023.863     592.6485    636.58634    267.16312    72.265996    62.584189    36.054516    323.92901   -311815.08 
      50    290.94875    163075.35    72.267661    72.267661    36.055347          120    19178.153    16795.622   -36770.462    532.65857    640.02003    -187.0903    72.267661    62.585631    36.055347   -265.56239   -311817.79 
      60    292.21297    163086.05    72.269241    72.269242    36.056135          120    19214.021    17013.092   -36612.628     484.9688    975.54126    85.010701    72.269241    62.586999    36.056135   -128.50504   -311822.12 
      70    292.34247    163096.24    72.270748    72.270748    36.056887          120    20026.305    17440.076   -36874.989    229.32785    1383.5726   -89.181117    72.270748    62.588304    36.056887    197.13068   -311823.92 
      80    289.27301    163106.12    72.272206    72.272207    36.057615          120    20578.801    17982.945   -37745.588    644.12067    1036.8729    309.57344    72.272206    62.589567    36.057615    272.05257   -311819.32 
      90    288.58255    163115.68    72.273618    72.273618    36.058319          120      19351.8    16978.596    -37739.13    1346.1041    788.94566    398.43512    72.273618     62.59079    36.058319    -469.5778   -311818.81 
     100    289.61927    163124.61    72.274938    72.274938    36.058977          120    18343.472    17126.202   -37693.813    913.15165    659.98613    177.97505    72.274938    62.591933    36.058977   -741.37926   -311821.25 
     110    287.28512    163132.81    72.276149    72.276149    36.059582          120    18403.909    17663.297   -38111.971     731.9799    298.66806    120.61688    72.276149    62.592981    36.059582   -681.58857    -311816.8 
     120    288.32722    163140.34     72.27726    72.277261    36.060136          120    18461.234    18064.812   -37642.635    886.52684   -226.24209    194.43277     72.27726    62.593944    36.060136    -372.1961   -311818.75 
     130    289.86736    163147.37    72.278299    72.278299    36.060654          120    18495.113    17836.814     -36968.7    1157.8109   -590.49428   -201.06551    72.278299    62.594843    36.060654   -212.25752   -311820.81 
     140    292.43017    163153.98    72.279274    72.279275    36.061141          120    18352.608    17142.319    -37505.85    1204.4755    33.324267   -417.94077    72.279274    62.595688    36.061141    -670.3075   -311824.58 
     150    290.13142    163160.01    72.280166    72.280166    36.061586          120    19022.268    16912.888   -37546.626    2046.5937   -455.13995   -600.43789    72.280166     62.59646    36.061586   -537.15678   -311818.58 
     160    290.85244    163165.53     72.28098     72.28098    36.061992          120    18908.301    17594.144   -37791.312    1930.6981   -68.027174   -449.60103     72.28098    62.597165    36.061992   -429.62238   -311818.55 
     170     292.3132    163170.61     72.28173     72.28173    36.062366          120    18771.072    17691.001   -37379.515    1489.1792    178.67918    174.07024     72.28173    62.597815    36.062366    -305.8139   -311819.69 
     180    292.81861    163175.29    72.282422    72.282422    36.062711          120    18459.135    17987.224   -37867.281    1687.7969     161.5751    706.07031    72.282422    62.598414    36.062711   -473.64059   -311818.62 
     190    290.95069    163179.58    72.283055    72.283056    36.063027          120    19088.867    18775.107    -37789.42    1842.0283    385.95284    538.99119    72.283055    62.598963    36.063027     24.85147   -311812.31 
     200    291.22812    163183.68     72.28366     72.28366    36.063329          120    19157.942    18300.142   -37866.971    1901.5985    415.51502   -104.18832     72.28366    62.599486    36.063329    -136.2955   -311810.44 
     210    292.45638    163187.54     72.28423    72.284231    36.063614          120    18600.995    17605.508   -37684.731    2096.7063    481.96119    30.040922     72.28423     62.59998    36.063614   -492.74262   -311809.17 
     220     294.9449    163191.02    72.284743    72.284744     36.06387          120     18523.41    16795.192   -37621.552    1658.9237    355.21711    714.40463    72.284743    62.600425     36.06387   -767.64985   -311810.71 
     230    298.07964    163193.98    72.285181    72.285181    36.064088          120    19045.652    16399.002   -37761.979    763.11246    721.70496    1024.0873    72.285181    62.600804    36.064088   -772.44208   -311812.92 
     240    297.81541    163196.43    72.285543    72.285543    36.064268          120    19271.708    16213.912   -37806.543    653.79058    209.73569    1520.9426    72.285543    62.601117    36.064268   -773.64067   -311808.99 
     250    296.98921    163198.41    72.285834    72.285835    36.064414          120     18890.11    16793.265    -37998.17    1248.9926    151.61179     1662.387    72.285834     62.60137    36.064414   -771.59878   -311803.13 
     260    296.67054    163199.92    72.286059    72.286059    36.064526          120    19335.847    17098.486   -38344.518    1826.6527    178.39814    1303.1266    72.286059    62.601564    36.064526   -636.72834   -311798.12 
     270    298.77489    163201.07    72.286228    72.286229     36.06461          120    20233.281    17355.608   -38281.794    1534.7281    268.96956    928.25769    72.286228    62.601711     36.06461   -230.96822   -311798.24 
     280    299.50849    163202.06    72.286374    72.286375    36.064683          120    20022.719    16987.023   -36910.432    894.14913    571.25257    1204.3767    72.286374    62.601837    36.064683    33.102977   -311795.68 
     290     303.0901    163203.01    72.286513    72.286514    36.064753          120    19467.461    16573.812   -36380.019    921.20444    737.48036    1335.7051    72.286513    62.601958    36.064753    -112.9153   -311799.66 
     300    305.03156    163203.88    72.286643    72.286643    36.064817          120    19976.953    16158.271   -36318.937    822.71156    422.29162    929.88732    72.286643     62.60207    36.064817   -61.237785   -311799.79 
     310    304.03825    163204.69    72.286763    72.286763    36.064877          120    19708.058    16593.368   -36675.452    1592.3614    527.19065    1670.7592    72.286763    62.602174    36.064877    -124.6752   -311794.64 
     320    305.59111    163205.41    72.286869    72.286869     36.06493          120    20298.921    16949.745   -37568.974    1736.9137    943.49286    1084.1382    72.286869    62.602265     36.06493    -106.7694   -311794.25 
     330    305.12479    163206.07    72.286966    72.286967    36.064978          120    20442.095    16780.186   -36983.872    2140.6124    991.71983     426.8885    72.286966     62.60235    36.064978     79.46956    -311790.9 
     340    305.66568    163206.71     72.28706    72.287061    36.065025          120    19247.907    16980.713   -37454.969    1974.9792    659.60606    1029.7061     72.28706    62.602431    36.065025   -408.78315   -311788.95 
     350    306.81572    163207.13    72.287123    72.287124    36.065057          120    19208.857    17071.098   -37663.677    1825.5783    278.38092    1276.5326    72.287123    62.602486    36.065057   -461.24081   -311788.86 
     360    308.14485    163207.32     72.28715     72.28715     36.06507          120    18957.823    16934.703   -36916.095    1819.7126    215.95645    1530.6314     72.28715    62.602509     36.06507   -341.18989   -311789.17 
     370    309.62693    163207.29    72.287147    72.287147    36.065069          120    18628.602    17137.874   -36870.287    1661.4542    1095.4265    1516.1096    72.287147    62.602506    36.065069   -367.93699   -311790.02 
     380    311.42051    163207.11    72.287119     72.28712    36.065055          120    19309.328    17162.598   -35921.031    1324.9086    831.59247    1413.6675    72.287119    62.602482    36.065055     183.6316    -311792.1 
     390    308.83508    163206.99    72.287101    72.287102    36.065046          120    20030.033    17060.049   -36687.216    1232.2477     1340.982    771.71544    72.287101    62.602467    36.065046    134.28874   -311786.41 
     400    309.49137    163206.92    72.287091    72.287092    36.065041          120     19207.46    17644.397   -37031.245    586.45264    953.76318    935.54264    72.287091    62.602458    36.065041   -59.796005    -311786.8 
     410    311.34576    163206.83    72.287078    72.287079    36.065035          120    19183.764    17359.556   -36762.025    246.74682    434.96412    1582.2547    72.287078    62.602447    36.065035   -72.901557   -311790.27 
     420    310.48841    163206.71    72.287061    72.287061    36.065026          120    19673.413    17644.601   -37352.198    598.55061     54.17841    1731.5829    72.287061    62.602432    36.065026   -11.394515    -311789.2 
     430    310.74415    163206.61    72.287046    72.287047    36.065019          120    20024.813    18133.663   -37034.758    721.99528    713.29203    2221.4513    72.287046    62.602419    36.065019    374.57266    -311790.2 
     440    307.40828    163206.73    72.287063    72.287064    36.065027          120    20784.216    18347.579   -36544.617    1011.7099    714.32982    1705.4011    72.287063    62.602434    36.065027    862.39262   -311784.65 
     450    310.50673    163207.26    72.287142    72.287142    36.065066          120    20521.305    18333.891   -36028.677    1038.9164    55.931593    1449.7292    72.287142    62.602502    36.065066    942.17309   -311791.67 
     460    308.50307    163208.25    72.287288    72.287288    36.065139          120     20643.83    18277.986   -36297.552    1505.9421    271.83763    2048.3428    72.287288    62.602628    36.065139    874.75477   -311789.82 
     470    308.40013    163209.63    72.287491    72.287492    36.065241          120    19542.423    18519.395   -37026.983    1370.9172    473.94441    1459.6989    72.287491    62.602805    36.065241    344.94494    -311791.4 
     480    309.90405    163211.13    72.287712    72.287713    36.065351          120    18774.196    17752.748   -37779.807    1490.3931    819.30991    1210.9023    72.287712    62.602996    36.065351   -417.62127   -311796.79 
     490    305.61188    163212.37    72.287896    72.287897    36.065443          120    17998.841    17737.054   -37976.943    1403.2396    566.81703    1070.8809    72.287896    62.603155    36.065443   -747.01593   -311791.03 
     500    304.57866    163213.21     72.28802    72.288021    36.065504          120    18384.059    18057.089   -37727.643    1272.8867    743.04656    995.34447     72.28802    62.603262    36.065504   -428.83161   -311792.14 
     510    304.85267    163213.81    72.288108    72.288109    36.065548          120    19722.724    18327.711   -37754.179     1084.287    810.87204     1961.601    72.288108    62.603339    36.065548    98.751876   -311795.51 
     520    304.09282    163214.42    72.288199      72.2882    36.065594          120    19955.242    18011.461   -36961.039    1054.6304    526.67777    1542.7984    72.288199    62.603418    36.065594    335.22136   -311797.19 
     530    303.74955    163215.16    72.288307    72.288308    36.065648          120    19286.643    17891.423   -36727.335    1378.3571    630.64203    1050.7041    72.288307    62.603511    36.065648    150.24363   -311799.61 
     540    301.92628    163215.99    72.288431    72.288432    36.065709          120    19927.842    18658.351   -36224.156    1549.4926    1267.7759    842.58649    72.288431    62.603618    36.065709    787.34577   -311799.47 
     550    303.47791    163217.13    72.288599    72.288599    36.065793          120    19664.244    17721.188   -36798.578    2022.3117     377.3089    563.08513    72.288599    62.603764    36.065793      195.618   -311805.85 
     560    304.27506    163218.37    72.288783    72.288783    36.065885          120    20359.366    16990.328   -36429.512    2095.5122    114.27298    1090.9093    72.288783    62.603923    36.065885    306.72748   -311810.86 
     570     303.1519    163219.72    72.288981    72.288981    36.065984          120    20048.875    17090.221   -36250.311    1577.7304   -29.345153    1024.3871    72.288981    62.604094    36.065984    296.26168   -311812.21 
     580    298.10364    163221.14    72.289191    72.289191    36.066089          120    19738.673    16866.188   -36998.731    1757.3376   -22.694643    1143.1819    72.289191    62.604276    36.066089   -131.29007   -311806.44 
     590    301.19186    163222.44    72.289383    72.289383    36.066184          120    19282.321    17152.475   -38040.164    1697.0912    902.32137    1618.7432    72.289383    62.604443    36.066184   -535.12282    -311816.4 
     600    297.53088    163223.46    72.289533    72.289533    36.066259          120    19465.274    17232.757   -37376.943    902.16731    1059.4243    1926.6741    72.289533    62.604572    36.066259   -226.30377   -311812.69 
     610    302.15536    163224.33    72.289662    72.289663    36.066324          120    20379.635    17446.868   -37328.535     747.3442    663.64669    2236.8578    72.289662    62.604684    36.066324    165.98923   -311825.29 
     620    298.31951    163225.24    72.289797    72.289797    36.066391          120    20174.885    17543.533   -37202.782      1488.81    721.25941    2522.9881    72.289797    62.604801    36.066391     171.8785   -311821.34 
     630    293.49621    163226.21    72.289939    72.289939    36.066462          120     19886.16    17625.221   -36836.778      1976.89    1056.4196    1665.5247    72.289939    62.604924    36.066462    224.86808   -311814.88 
     640    297.23211    163227.28    72.290097    72.290097     36.06654          120    20244.858    17771.922   -36083.441    2217.3749    781.95939    1561.6625    72.290097    62.605061     36.06654     644.4461   -311825.35 
     650    296.39046    163228.63    72.290296    72.290297     36.06664          120    20507.254    17975.124   -36163.986    2209.9564    599.68769    1540.2974    72.290296    62.605233     36.06664    772.79728   -311825.93 
     660     292.4425     163230.3    72.290543    72.290544    36.066763          120     19352.28    18473.806   -36325.179    1527.8803      319.254    698.33513    72.290543    62.605448    36.066763    500.30234   -311821.23 
     670    289.73153    163232.19    72.290822    72.290822    36.066902          120     19651.73     17957.84   -37060.802    1582.5516    660.82463    690.93566    72.290822    62.605689    36.066902    182.92277   -311818.41 
     680    293.46172    163234.08    72.291102    72.291102    36.067042          120    19044.382    17331.484   -37153.345    1893.7838    1207.8108    761.34539    72.291102    62.605931    36.067042   -259.15971   -311827.55 
     690    291.31227    163235.81    72.291357    72.291358    36.067169          120    19239.361    17828.541   -37121.382    2192.0702    1553.7215    758.74488    72.291357    62.606152    36.067169   -17.826471    -311825.5 
     700    291.93906    163237.47    72.291602    72.291603    36.067292          120    19574.442    18006.924   -36982.328    2075.5198    724.77737    1197.4126    72.291602    62.606365    36.067292    199.67937   -311828.47 
     710    293.98704    163239.21    72.291859     72.29186     36.06742          120     20765.37    17586.701   -35829.764     2205.008     1000.954    1944.7258    72.291859    62.606587     36.06742    840.76897      -311833 
     720    294.71463    163241.27    72.292163    72.292164    36.067571          120    20459.784    17319.729   -36795.161    1582.7816    788.01812     2447.001    72.292163     62.60685    36.067571    328.11753   -311835.22 
     730    292.36718    163243.46    72.292486    72.292486    36.067732          120    19811.039    17109.417    -37070.44    1018.4059    974.99111    2075.9187    72.292486     62.60713    36.067732   -49.994488   -311831.76 
     740    293.28979    163245.58    72.292799      72.2928    36.067889          120      19641.8    17031.287   -36845.015    992.94855    539.61851    827.19636    72.292799    62.607401    36.067889   -57.309302    -311833.4 
     750    290.83531     163247.6    72.293097    72.293097    36.068037          120    19725.181    16623.904   -37612.331    876.96061    813.87135    444.58351    72.293097    62.607659    36.068037   -421.08171    -311828.8 
     760    291.83689    163249.31    72.293349     72.29335    36.068163          120    19294.574    15613.451   -37580.785    1196.0673    771.24561      442.959    72.293349    62.607878    36.068163   -890.91969    -311831.1 
     770    291.66502    163250.57    72.293535    72.293535    36.068256          120    19701.742    16238.484   -36896.122    771.80709   -85.110028    440.75937    72.293535    62.608038    36.068256   -318.63201   -311830.72 
     780    290.78588     163251.6    72.293687    72.293688    36.068332          120     19772.39    16565.819   -36478.915    1165.8271    71.559587     1149.889    72.293687    62.608171    36.068332   -46.902117   -311827.71 
     790    292.27855    163252.54    72.293826    72.293826    36.068401          120    18246.613    17116.151   -36557.535    992.86167    735.72175    760.62648    72.293826     62.60829    36.068401   -398.25737   -311829.23 
     800    293.62337    163253.25    72.293931    72.293932    36.068454          120    17825.005    17373.998   -36841.644     973.9424    364.05167     988.4548    72.293931    62.608382    36.068454   -547.54678   -311830.36 
     810    293.33106    163253.66    72.293991    72.293991    36.068483          120      17277.7    17762.214   -37776.987    1954.0845   -708.91276     1832.741    72.293991    62.608433    36.068483   -912.35754   -311827.45 
     820    293.03446     163253.6    72.293983    72.293983    36.068479          120    17211.827    18062.939   -37734.186    2419.2173   -638.05442    2356.1316    72.293983    62.608426    36.068479    -819.8065   -311825.11 
     830    295.45998    163253.12    72.293912    72.293913    36.068444          120    18239.937    17286.482   -37523.378    2444.4911    142.33353    1932.7708    72.293912    62.608365    36.068444   -665.65323   -311827.97 
     840    295.84167    163252.35    72.293799    72.293799    36.068387          120    19286.428     17719.14   -36977.928    2125.6779   -156.14102    1378.7771    72.293799    62.608267    36.068387    9.2134135   -311826.34 
     850     296.6014    163251.63    72.293691    72.293692    36.068334          120    20035.338    18210.519   -35536.363     2026.037    568.65131    916.74163    72.293691    62.608174    36.068334    903.16483   -311824.59 
     860    297.90287    163251.32    72.293647    72.293647    36.068312          120    19502.495    18116.653   -35725.987    1465.4309       255.32    1336.8815    72.293647    62.608135    36.068312    631.05385   -311824.82 
     870    297.31632    163251.36    72.293651    72.293652    36.068314          120    18781.952    18135.491   -36380.366    1367.1897    938.62997    1618.2654    72.293651    62.608139    36.068314    179.02581   -311821.06 
     880    300.55287    163251.48     72.29367    72.293671    36.068323          120    18235.877    18204.263   -36854.643    1690.8747    813.01654    1384.6465     72.29367    62.608156    36.068323    -138.1678   -311824.21 
     890    299.82807    163251.53    72.293677    72.293678    36.068327          120    18626.643    16936.068   -37498.361    1561.6527   -215.67766     1239.526    72.293677    62.608162    36.068327   -645.21667   -311820.23 
     900    298.78711    163251.28     72.29364    72.293641    36.068308          120    19262.415    16943.154   -37527.627    1262.7758    430.20735     1504.296     72.29364     62.60813    36.068308    -440.6861   -311815.61 
     910     301.1142    163250.82    72.293573    72.293573    36.068275          120    19722.639    17428.107   -37077.831    710.40785   -11.014857    1597.9733    72.293573    62.608071    36.068275    24.305235    -311817.4 
     920    303.20143    163250.36    72.293504    72.293505     36.06824          120    19027.146    17662.669   -37402.497    673.95743   -10.720507    1287.4068    72.293504    62.608012     36.06824   -237.56053   -311818.81 
     930    299.01363    163249.79    72.293421    72.293421    36.068199          120    18354.875    17939.602   -37685.327    731.80853    538.38751     1598.421    72.293421    62.607939    36.068199   -463.61627    -311807.9 
     940    303.05381    163249.04    72.293309    72.293309    36.068143          120    18534.094    18369.135   -37045.739    1064.9557   -94.170975    1963.4471    72.293309    62.607843    36.068143   -47.503413   -311813.47 
     950    301.43046    163248.23    72.293189     72.29319    36.068083          120    18419.623    18056.377   -37640.478    1134.9167   -120.15357    1805.4265    72.293189    62.607739    36.068083   -388.15914    -311807.5 
     960     305.3991    163247.22    72.293041    72.293041    36.068009          120    18342.369     17186.45   -38523.296    1750.3297   -513.15696    1386.7832    72.293041     62.60761    36.068009   -998.15914   -311812.85 
     970    306.38186    163245.78    72.292829    72.292829    36.067903          120    18569.179     17699.25   -38049.762    1914.5392   -366.96007    902.98534    72.292829    62.607427    36.067903   -593.77761   -311812.83 
     980    302.99457    163244.08    72.292577    72.292577    36.067778          120    19013.465     18080.66   -37770.511    1133.7067   -127.09801    475.60576    72.292577    62.607209    36.067778   -225.46192   -311804.49 
     990    305.06492     163242.3    72.292315    72.292316    36.067647          120    19892.711    18030.722   -37278.142    1464.8509    588.11806    807.32253    72.292315    62.606982    36.067647     215.0971   -311806.93 
    1000    304.17694    163240.72    72.292081    72.292082    36.067531          120    20665.346    18564.117   -35859.782    1618.6756    802.55288    1507.6892    72.292081    62.606779    36.067531    1123.2268    -311803.2 
    1010    306.07462     163239.7    72.291931    72.291932    36.067456          120    20622.126    18442.241   -35737.641    1725.0046    644.31993    2093.7667    72.291931     62.60665    36.067456    1108.9084   -311805.64 
    1020    304.65938    163239.26    72.291866    72.291866    36.067423          120    20025.361    17899.842   -36305.138    1711.4429    744.77319    2018.2841    72.291866    62.606593    36.067423    540.02151    -311801.6 
    1030    309.28514    163239.11    72.291844    72.291845    36.067412          120     19898.85    17095.811    -36005.73    1715.0017    367.08245    1941.8341    72.291844    62.606574    36.067412    329.64365   -311809.71 
    1040    306.35819    163239.17    72.291853    72.291853    36.067417          120     19483.26    17672.586   -35865.569    1381.1013    406.05481    1398.2355    72.291853    62.606582    36.067417    430.09257   -311803.02 
    1050    308.93999    163239.43    72.291891    72.291891    36.067435          120    18979.359    17689.975   -36577.996    1228.0903    163.67348    1823.8031    72.291891    62.606614    36.067435    30.445844   -311807.91 
    1060    307.18979    163239.73    72.291935    72.291935    36.067458          120    18905.155     17994.38   -35776.548    1674.4085    225.59256    2277.0772    72.291935    62.606653    36.067458    374.32885   -311804.51 
    1070    308.15204     163240.2    72.292005    72.292006    36.067493          120      19877.2     18455.18   -35934.341    1784.3243   -11.936572    2188.0559    72.292005    62.606714    36.067493    799.34653   -311806.22 
    1080     307.3535    163241.07    72.292134    72.292134    36.067557          120    20310.606    18218.003   -36366.491    2223.5002    63.097893    1282.9692    72.292134    62.606825    36.067557    720.70581   -311805.36 
    1090    307.24584    163242.25    72.292307    72.292308    36.067643          120    19786.633    16915.731   -37132.942    1393.6262    372.96091    949.24431    72.292307    62.606975    36.067643   -143.52593   -311805.89 
    1100    308.70941    163243.35    72.292469     72.29247    36.067724          120    19350.681    16737.634   -37267.072     1325.163    352.49324    1281.4214    72.292469    62.607116    36.067724   -392.91935    -311809.9 
    1110    306.13951    163244.23      72.2926    72.292601    36.067789          120     18875.34    17752.586   -37325.523    1191.0522    439.58952    1093.8061      72.2926    62.607229    36.067789   -232.53243   -311806.64 
    1120    303.59863    163244.97    72.292709     72.29271    36.067844          120    18497.846     18593.59   -37560.038    1211.5907   -242.60377    1021.9246    72.292709    62.607323    36.067844   -156.20039   -311803.55 
    1130     303.6559    163245.63    72.292805    72.292806    36.067892          120    19382.633    17849.992   -36826.592    1554.2696   -345.74514    697.91425    72.292805    62.607407    36.067892    135.34432    -311805.6 
    1140    304.69277    163246.32    72.292908    72.292908    36.067943          120    19885.896    17368.243   -36685.654    2025.4385   -786.60313    1090.5562    72.292908    62.607495    36.067943    189.49512    -311809.5 
    1150    303.78838    163247.06    72.293017    72.293017    36.067997          120    19411.749    16956.936   -37248.648    2072.3602   -482.64696    1344.7121    72.293017    62.607589    36.067997   -293.32098   -311810.29 
    1160    306.11535    163247.63    72.293101    72.293102    36.068039          120    19300.707    17128.067   -37631.952     2275.601    176.20901    1567.1914    72.293101    62.607663    36.068039   -401.05904    -311816.6 
    1170    302.94997       163248    72.293156    72.293156    36.068067          120    19199.442    17298.997    -37008.89    1646.5423    698.71599     1666.099    72.293156     62.60771    36.068067   -170.15013   -311813.01 
    1180    302.61622    163248.26    72.293194    72.293194    36.068086          120    19092.338    18078.401   -37487.972    993.56116    161.79009    1114.6621    72.293194    62.607743    36.068086   -105.74414   -311814.32 
    1190    302.18579    163248.45    72.293222    72.293223      36.0681          120    18728.006    18784.128   -37577.551    1161.8227    605.79675    392.09544    72.293222    62.607767      36.0681   -21.805809   -311816.44 
    1200    298.65666    163248.63     72.29325     72.29325    36.068113          120    19450.639    18463.457   -37020.429    1241.4046    225.87884    1518.6045     72.29325    62.607791    36.068113    297.88885    -311812.3 
    1210    299.88653    163249.03    72.293307    72.293308    36.068142          120    20279.169    19033.892   -35438.481    1732.1402   -144.22401    2448.6735    72.293307    62.607841    36.068142    1291.5268   -311816.85 
    1220      300.815    163250.05    72.293458    72.293459    36.068218          120    21025.952    18934.665   -34879.439    1679.7106    44.425706    2378.4029    72.293458    62.607972    36.068218    1693.7262   -311821.39 
    1230    300.12567    163251.86    72.293725    72.293726    36.068351          120    20909.751    18248.133   -36230.483    1107.1355   -427.10192    1835.4175    72.293725    62.608203    36.068351    975.80013   -311822.98 
    1240    300.33659    163254.13    72.294061    72.294061    36.068518          120    19687.079    17962.029   -36399.258    584.98683   -673.33539    1142.2966    72.294061    62.608494    36.068518    416.61645   -311826.17 
    1250    299.77048    163256.61    72.294426    72.294427      36.0687          120    20072.462    18531.705   -36259.668     629.5058   -298.27227    1195.1075    72.294426     62.60881      36.0687     781.4996   -311827.72 
    1260    297.30171    163259.39    72.294838    72.294838    36.068906          120    19740.293    19269.428   -36788.361    909.80011    427.66919     1523.185    72.294838    62.609167    36.068906    740.45328    -311825.1 
    1270    295.47194    163262.47    72.295292    72.295292    36.069132          120    19756.306    18324.143   -37363.367    1209.1845    910.35465    1116.4566    72.295292     62.60956    36.069132    239.02757   -311823.41 
    1280    296.82972     163265.6    72.295753    72.295754    36.069363          120    20422.859    17151.436   -37342.694    1501.6762    910.84392    1092.8195    72.295753     62.60996    36.069363     77.20044   -311828.14 
    1290    295.96632    163268.71    72.296214    72.296214    36.069592          120    20414.818    17588.609   -35815.893    1380.8486    866.34159    1117.6929    72.296214    62.610358    36.069592    729.17823   -311828.88 
    1300    294.88694     163272.1    72.296714    72.296714    36.069842          120    20550.414    17242.082   -34899.155    1042.2835    504.35887    1165.6972    72.296714    62.610792    36.069842    964.44695   -311829.31 
    1310    295.72974     163275.9    72.297274    72.297275    36.070121          120    20031.125     17953.14   -35290.452    1189.3261    575.74928    586.03712    72.297274    62.611277    36.070121    897.93746    -311832.5 
    1320    294.06039    163280.03    72.297884    72.297885    36.070426          120    19601.729    17647.051    -35773.27    1578.7435    227.39963    555.81076    72.297884    62.611805    36.070426    491.83654   -311830.77 
    1330    293.49253     163284.3    72.298513    72.298514     36.07074          120    19219.146    17260.176   -36472.886    1992.9577   -237.09573    1108.2564    72.298513     62.61235     36.07074     2.145468   -311830.53 
    1340    294.92125    163288.47    72.299129     72.29913    36.071047          120    19316.476    16648.151   -36582.804    2483.6504   -260.64048     1248.306    72.299129    62.612883    36.071047   -206.05923   -311834.48 
    1350    293.46768    163292.43    72.299714    72.299714    36.071338          120     19313.08    17464.626   -37496.912     1913.744   -316.85787    762.00479    72.299714    62.613389    36.071338   -239.73537   -311832.62 
    1360    295.19688    163296.18    72.300267    72.300268    36.071615          120    18536.146    18720.419    -37378.59    569.60575    485.87083    1614.0448    72.300267    62.613869    36.071615    -40.67477   -311836.51 
    1370    294.03492    163299.79      72.3008      72.3008     36.07188          120    17707.236    18820.422   -37740.273    935.00596    108.78567    2070.5242      72.3008     62.61433     36.07188   -404.20481   -311834.59 
    1380    294.65486     163303.1    72.301288    72.301289    36.072124          120    17093.908    18047.973    -37494.17    1070.0039   -21.551989    1489.5617    72.301288    62.614753    36.072124   -784.09646   -311836.22 
    1390    293.21637    163305.95    72.301709    72.301709    36.072334          120     16667.67    18075.789   -37150.484    845.59333    553.63043    1091.0389    72.301709    62.615117    36.072334   -802.34169    -311833.8 
    1400    295.05697    163308.32    72.302058    72.302059    36.072508          120    17402.493    18343.164   -37555.858    1142.8261    91.751872    1018.2908    72.302058     62.61542    36.072508   -603.40026   -311836.76 
    1410    294.95908    163310.34    72.302357    72.302357    36.072657          120    18632.883    18143.291   -36633.397    1285.0405    567.26647    1376.4626    72.302357    62.615678    36.072657    47.592425   -311835.85 
    1420     293.7634    163312.31    72.302648    72.302649    36.072802          120    18728.972    18658.609   -36528.486    682.63228    78.850732    1466.4628    72.302648    62.615931    36.072802    286.36511   -311833.07 
    1430    294.33987    163314.37    72.302951    72.302952    36.072954          120    18870.847    18463.862   -36396.796    758.96793   -200.25806    1456.5545    72.302951    62.616193    36.072954    312.63767    -311833.3 
    1440    296.23665     163316.5    72.303266    72.303267    36.073111          120    19226.168    18237.325   -37512.365    756.60599    94.717868    1200.9358    72.303266    62.616466    36.073111   -16.290699   -311835.89 
    1450     295.8443    163318.58    72.303574    72.303574    36.073264          120    18953.073    17936.906   -37685.369    894.09359    255.16868    1404.4695    72.303574    62.616732    36.073264   -265.12984   -311834.15 
    1460    296.29561    163320.46    72.303851    72.303852    36.073403          120    17787.415    17732.901   -37749.671    1318.1007   -308.95769    1923.8201    72.303851    62.616972    36.073403   -743.11855   -311833.42 
    1470    296.53466    163321.96    72.304072    72.304073    36.073513          120    18439.252    17430.281   -36765.775    2043.6038    339.50283    2168.0875    72.304072    62.617164    36.073513   -298.74745   -311831.98 
    1480    296.56199    163323.24    72.304261    72.304262    36.073607          120    19233.377    17582.618   -37363.282    1633.0868   -46.551226    2253.8854    72.304261    62.617328    36.073607   -182.42927   -311830.39 
    1490     298.9524     163324.4    72.304432    72.304432    36.073692          120    19171.863    17652.622   -38022.876    1174.9581    93.252944    2340.2782    72.304432    62.617475    36.073692   -399.46398   -311833.39 
    1500    296.91366    163325.35    72.304572    72.304572    36.073762          120    18743.971     17772.06    -37088.04    1267.0828   -62.956376    1932.5193    72.304572    62.617597    36.073762   -190.66965   -311827.66 
    1510     297.0165    163326.13    72.304687    72.304688     36.07382          120    18010.742     17809.47   -37477.817    2201.3183   -308.29378    1909.3385    72.304687    62.617697     36.07382   -552.53509   -311826.12 
    1520    302.35174    163326.63    72.304761    72.304761    36.073857          120    17725.043    17744.056   -37609.987    2245.0533   -586.55157    1708.6808    72.304761     62.61776    36.073857   -713.62973   -311834.34 
    1530    299.22199    163326.76     72.30478     72.30478    36.073866          120    18006.171     17531.05   -37695.996    2106.4729   -690.42705     1930.312     72.30478    62.617777    36.073866   -719.59169   -311826.17 
    1540    300.43199    163326.54    72.304748    72.304749     36.07385          120     19209.82    17304.173   -37258.817    1556.3607   -196.11096    2019.2782    72.304748     62.61775     36.07385   -248.27462   -311826.46 
    1550    301.56641    163326.19    72.304696    72.304696    36.073824          120    19189.381    17437.337   -37497.665    1073.9388    713.77693    2003.8237    72.304696    62.617704    36.073824   -290.31545   -311826.69 
    1560    303.11203    163325.69    72.304622    72.304623    36.073787          120    18922.417    17061.882   -37143.565    823.97264    697.58222    1516.8227    72.304622     62.61764    36.073787   -386.42208   -311827.57 
    1570    302.24633    163324.97    72.304517    72.304517    36.073735          120    18042.157     17049.33   -38041.884     720.2164    259.66225    1150.3126    72.304517    62.617549    36.073735   -983.46542      -311824 
    1580    301.13558    163323.81    72.304345    72.304346    36.073649          120    18006.351    17627.729   -37795.706    901.96012    161.74662    1536.4583    72.304345      62.6174    36.073649   -720.54187   -311819.86 
    1590    302.35827    163322.35     72.30413     72.30413    36.073542          120    18588.587    18895.778   -36275.892    1083.0764   -169.30501    1310.2763     72.30413    62.617214    36.073542    402.82442   -311820.81 
    1600    305.77691    163321.06     72.30394     72.30394    36.073447          120    18716.848    18764.245   -36805.204    1429.3667   -230.71908    1824.6438     72.30394    62.617049    36.073447    225.29652   -311826.04 
    1610    302.62293    163319.93    72.303772    72.303772    36.073363          120    19222.418    18345.093   -36867.018    963.79763    25.363737    1075.2479    72.303772    62.616904    36.073363    233.49778   -311818.79 
    1620    303.33295    163318.94    72.303626    72.303626     36.07329          120     19083.13    19120.423   -36722.999    865.44954    687.36439    1102.5706    72.303626    62.616777     36.07329    493.51816    -311818.7 
    1630    302.32291    163318.23    72.303521    72.303521    36.073238          120    19079.288    19607.226   -36172.008    985.03161    648.28989    2217.2115    72.303521    62.616686    36.073238    838.16851   -311815.85 
    1640    304.78586    163317.96    72.303481    72.303482    36.073218          120     19548.49    19607.327   -35597.083    483.49959    802.27075    2074.5789    72.303481    62.616652    36.073218    1186.2448   -311819.56 
    1650    305.09235    163318.29     72.30353    72.303531    36.073243          120    19665.935    18913.152    -35307.39    545.64534    294.25561    1455.8993     72.30353    62.616695    36.073243    1090.5657   -311819.28 
    1660    305.08577    163319.18    72.303661    72.303662    36.073308          120    19791.746    18525.709   -35334.214    1267.0614   -198.67477     1737.057    72.303661    62.616808    36.073308    994.41353   -311819.03 
    1670    304.12735    163320.55    72.303863    72.303864    36.073409          120    20243.205    18336.493   -36019.975    1152.9403   -479.73376    2038.4282    72.303863    62.616983    36.073409    853.24089      -311817 
    1680    305.85002    163322.28    72.304119    72.304119    36.073536          120    20156.112    17361.357   -37389.948    416.30128   -66.002057    1619.3295    72.304119    62.617204    36.073536    42.506611    -311819.5 
    1690     304.7149    163324.07    72.304384    72.304384    36.073668          120    20279.208    17683.796   -36965.863    483.13311   -492.09934    1825.9327    72.304384    62.617434    36.073668    332.38034   -311817.33 
    1700    307.68502    163325.96    72.304661    72.304662    36.073807          120    19414.978    18527.121   -37540.931    931.31851   -1121.6755    1182.7428    72.304661    62.617674    36.073807    133.72233    -311823.4 
    1710    305.33168    163327.88    72.304945    72.304945    36.073948          120    19578.873    18541.365   -37190.396    808.66456   -706.62254     1346.128    72.304945     62.61792    36.073948    309.94731   -311819.25 
    1720    303.88274    163329.95     72.30525    72.305251    36.074101          120    20418.157    18120.343   -35909.982    1208.4157   -436.81799    1973.5418     72.30525    62.618184    36.074101    876.17241   -311817.11 
    1730     306.0932    163332.35    72.305605    72.305605    36.074278          120    19968.725    17338.764   -36309.692    1767.3344   -350.14085    2554.2458    72.305605    62.618491    36.074278    332.59885   -311822.11 
    1740    304.99728    163334.89     72.30598     72.30598    36.074465          120     19765.08    17359.381   -36683.229    1187.2463    63.860621    2030.2696     72.30598    62.618816    36.074465    147.07728   -311821.22 
    1750    300.90689    163337.43    72.306355    72.306355    36.074652          120     19156.62    17113.144   -36951.066    1210.3934    838.38771    1559.2201    72.306355    62.619141    36.074652   -227.10103   -311814.78 
    1760    301.11399    163339.83    72.306709     72.30671    36.074829          120    19155.615    18000.697   -37160.066    727.41491     267.7129    1380.6412    72.306709    62.619448    36.074829   -1.2511265   -311816.04 
    1770    301.63121    163342.16    72.307052    72.307053       36.075          120    19144.865    17963.188   -36917.637    395.29451   -444.00593    753.93315    72.307052    62.619745       36.075    63.471678   -311818.05 
    1780    302.54903    163344.46    72.307393    72.307393     36.07517          120    19125.201      18114.3   -36861.555    1133.6647   -336.92659    1197.1152    72.307393     62.62004     36.07517     125.9821   -311821.44 
    1790    303.46912    163346.78    72.307735    72.307735     36.07534          120    19616.222    17626.137   -36902.997    1749.0825   -309.91468    1825.2452    72.307735    62.620336     36.07534    113.12069   -311824.99 
    1800    301.06433    163349.11    72.308078    72.308078    36.075511          120    19695.252    17542.047   -36988.464    1300.6111   -728.00763    2189.8131    72.308078    62.620633    36.075511    82.945152   -311821.74 
    1810    300.48157    163351.39    72.308414    72.308414    36.075679          120    19470.357     17283.56   -37977.374    1246.7079   -837.39225    1689.5561    72.308414    62.620924    36.075679   -407.81894   -311822.52 
    1820    300.32059    163353.42    72.308714    72.308714    36.075829          120    19576.697    17125.816   -38108.824    1188.1486    -911.6233    1557.9335    72.308714    62.621184    36.075829   -468.77025   -311824.41 
    1830    303.13002    163355.17    72.308972    72.308973    36.075958          120    19668.736    17388.117    -37941.38    697.40532    68.740983    1336.7866    72.308972    62.621408    36.075958   -294.84231   -311830.94 
    1840    300.69896    163356.76    72.309207    72.309207    36.076075          120    20246.744    17273.072   -36943.193    679.71823    450.40802    1690.9086    72.309207     62.62161    36.076075    192.20778    -311828.2 
    1850    300.37444    163358.38    72.309446    72.309447    36.076194          120     19463.42    17620.163    -36625.41    1294.0325     676.1565    1975.3245    72.309446    62.621818    36.076194    152.72458   -311829.76 
    1860    300.32896    163360.04    72.309691    72.309692    36.076317          120    18772.605    17779.474    -36518.97    1059.6952    820.92365    1991.7965    72.309691     62.62203    36.076317    11.036391   -311830.97 
    1870     297.3262     163361.7    72.309936    72.309936    36.076438          120     19615.32    18325.307   -36760.344    542.48857    466.47734    1945.8429    72.309936    62.622242    36.076438    393.42802   -311827.34 
    1880    299.76856    163363.48    72.310199    72.310199     36.07657          120    19700.743    18538.212   -37733.985     674.4759    135.35875    2362.5884    72.310199     62.62247     36.07657     168.3233   -311833.43 
    1890    298.62089    163365.31    72.310468    72.310469    36.076704          120    19467.834     18388.11   -37833.996    1212.8537   -119.74668    2528.3517    72.310468    62.622703    36.076704      7.31615   -311833.08 
    1900    297.26032    163367.08    72.310729     72.31073    36.076834          120    19434.788    17237.185   -38028.315    1189.2317    171.95238    2238.6946    72.310729    62.622929    36.076834   -452.11395    -311832.3 
    1910    299.22463     163368.6    72.310953    72.310954    36.076946          120    19016.405    17268.608   -38495.499    1295.2138   -726.89783    2065.6796    72.310953    62.623123    36.076946   -736.82851   -311837.39 
    1920    296.45394    163369.73    72.311121    72.311121     36.07703          120    19070.706    17857.812   -38454.737    1255.2941    -934.1185    1858.0214    72.311121    62.623268     36.07703   -508.73985   -311833.49 
    1930    294.83334    163370.58    72.311246    72.311247    36.077092          120     19551.88      17695.7   -37393.297    1119.2418   -866.14039    2458.3208    72.311246    62.623377    36.077092   -48.572249   -311831.66 
    1940    296.81129    163371.38    72.311364    72.311364    36.077151          120    19653.633    18018.878   -36652.492    1229.0303   -1069.3467    2139.4949    72.311364    62.623479    36.077151    340.00614   -311836.27 
    1950    295.35049    163372.31    72.311501    72.311501    36.077219          120    19416.176    17987.042   -36416.662    1774.4841   -419.64035    1403.9956    72.311501    62.623597    36.077219    328.85161   -311834.44 
    1960    295.92953    163373.36    72.311656    72.311657    36.077297          120    19867.008    17181.615   -37362.666    1533.6536   -712.55221    1307.5561    72.311656    62.623732    36.077297   -104.68083   -311836.76 
    1970     295.6996    163374.38    72.311806    72.311807    36.077372          120     19189.33    17697.783   -36878.553    1190.3476    -778.8291    927.06483    72.311806    62.623862    36.077372    2.8533568      -311837 
    1980    296.14984    163375.37    72.311953    72.311954    36.077445          120    19597.898    17763.728   -36161.459    1283.3734   -377.42314    859.58766    72.311953    62.623989    36.077445    400.05564   -311838.25 
    1990    295.67311    163376.52    72.312123    72.312123    36.077529          120    20585.781    17066.974   -36763.225    1169.4186   -1184.3588    1232.7625    72.312123    62.624136    36.077529    296.51015   -311837.32 
    2000    294.17223    163377.78    72.312309    72.312309    36.077622          120    20072.639    16989.686   -37460.913    1240.1153   -1020.3195    830.12085    72.312309    62.624297    36.077622   -132.86248   -311834.48 
    2010    294.87863    163378.97    72.312483    72.312484    36.077709          120    19862.848    17392.276   -37434.549    1376.8597   -1032.7175    1128.2578    72.312483    62.624448    36.077709   -59.808674   -311835.63 
    2020    294.15953     163380.1     72.31265    72.312651    36.077793          120    19879.549    17522.047   -37008.247    1467.1114   -971.76557    1920.4551     72.31265    62.624593    36.077793     131.1164   -311834.41 
    2030    293.19431    163381.24    72.312819     72.31282    36.077877          120    19090.563    17643.914   -37125.118    772.71924   -469.27994    1336.5255    72.312819    62.624739    36.077877   -130.21375   -311832.67 
    2040    296.76897    163382.28    72.312973    72.312973    36.077954          120    18403.395    17370.062   -37408.318    560.29234   -561.93259    1714.0382    72.312973    62.624872    36.077954   -544.95395   -311839.41 
    2050    301.43949    163383.03    72.313083    72.313084    36.078009          120    18793.006    17040.837   -37601.594    843.91217   -796.73036    1605.6427    72.313083    62.624968    36.078009   -589.25047   -311847.75 
    2060    297.45181    163383.51    72.313153    72.313154    36.078044          120    19390.332    17199.838   -36878.683    994.91534     -557.386    1432.2787    72.313153    62.625028    36.078044   -96.170953   -311838.96 
    2070    295.73602    163383.92    72.313214    72.313214    36.078074          120    19484.549    17156.806   -36349.646    669.67666   -209.31629    1200.6071    72.313214    62.625081    36.078074    97.236329   -311834.76 
    2080    295.08831    163384.38    72.313281    72.313282    36.078108          120      19352.2    17983.994   -36268.208    396.98608    84.138731    1232.8314    72.313281    62.625139    36.078108    355.99525   -311832.46 
    2090    297.10718    163384.98    72.313371    72.313371    36.078152          120    18832.264    18032.491     -36449.7    1000.6467   -525.79327     1534.646    72.313371    62.625217    36.078152    138.35162   -311835.23 
    2100    296.07681    163385.61    72.313463    72.313464    36.078198          120    18534.763    17108.104   -37517.991    1145.8093   -619.11462    1604.8945    72.313463    62.625297    36.078198    -625.0413   -311831.95 
    2110     298.6361    163385.92    72.313509     72.31351    36.078221          120    19298.412    16463.263   -38475.131    1246.3373    77.255176    1985.6266    72.313509    62.625337    36.078221   -904.48511   -311835.59 
    2120    296.20673    163385.79     72.31349    72.313491    36.078212          120    19817.525    16601.362   -37695.043    622.66021   -58.614782    2380.9295     72.31349     62.62532    36.078212   -425.38516   -311829.82 
    2130    298.69897     163385.4    72.313432    72.313432    36.078183          120    18868.953    16829.104   -37653.416     662.1998   -391.97034    2308.0539    72.313432     62.62527    36.078183   -651.78657   -311832.63 
    2140    298.55599    163384.67    72.313325    72.313326    36.078129          120     18438.76    16864.079   -38614.629    803.04189    109.73538    1950.4926    72.313325    62.625177    36.078129   -1103.9301   -311831.04 
    2150    297.00728     163383.4    72.313137    72.313138    36.078036          120    18206.847     16046.14   -37980.238    1133.4424    329.34759    1509.9676    72.313137    62.625014    36.078036   -1242.4172   -311825.85 
    2160    299.22004    163381.53    72.312861    72.312862    36.077898          120    18081.644    16038.679   -36787.345    1441.6076   -442.60365    1359.8916    72.312861    62.624775    36.077898   -889.00734    -311828.5 
    2170    300.45576    163379.19    72.312516    72.312516    36.077726          120    17347.557    15790.737   -37462.701    1097.5977    -619.6242     868.8023    72.312516    62.624476    36.077726   -1441.4688   -311828.86 
    2180    302.72622    163376.19    72.312074    72.312074    36.077505          120    18004.347    15196.572   -37581.705    810.71333   -8.4602603    1199.8519    72.312074    62.624093    36.077505   -1460.2621   -311831.84 
    2190    301.13591    163372.53    72.311534    72.311534    36.077236          120    18699.438    16309.056   -38012.825    615.44593   -631.89516    1958.8686    72.311534    62.623626    36.077236   -1001.4439   -311827.28 
    2200    301.64367    163368.46    72.310933    72.310934    36.076936          120    19114.019    17427.059   -36980.142      984.758   -211.99926    1212.4755    72.310933    62.623106    36.076936   -146.35466   -311826.54 
    2210    302.36779     163364.4    72.310334    72.310334    36.076637          120    19792.206    17293.256   -36323.739    1164.8866    511.85028    1950.1537    72.310334    62.622587    36.076637    253.90756   -311826.31 
    2220    301.11913    163360.53    72.309763    72.309764    36.076352          120    19942.708    17572.904   -36447.207    1496.1172    320.67992    2217.8503    72.309763    62.622093    36.076352    356.13502   -311822.07 
    2230    301.91181    163356.94    72.309234    72.309234    36.076088          120     19302.46    18429.492   -35205.921    1526.3667    275.59231     2246.501    72.309234    62.621634    36.076088    842.01043   -311821.92 
    2240    303.17534    163353.82    72.308774    72.308774    36.075859          120    19269.959    18672.161   -36060.298    877.81218    186.78829    2349.7481    72.308774    62.621235    36.075859    627.27437   -311823.17 
    2250    302.91597     163351.1    72.308372    72.308373    36.075658          120    19315.915    18294.326   -36181.937   -82.467036    478.18152     2049.786    72.308372    62.620888    36.075658    476.10125   -311821.55 
    2260     304.5144    163348.67    72.308014    72.308014    36.075479          120    18826.015    17582.227   -35900.805    520.52452    261.86573     1058.234    72.308014    62.620577    36.075479    169.14559   -311823.51 
[...]
   99200    301.86217    163747.12    72.366759    72.366759    36.104788          120    21182.016    17137.073   -37194.794    1895.1423   -1116.2881   -169.93935    72.366759    62.671452    36.104788    374.76492   -311884.29 
   99210    300.19297    163751.22    72.367362    72.367363    36.105089          120    21241.995    16256.691    -37665.18    2069.9672   -1588.7385    -210.0277    72.367362    62.671975    36.105089   -55.497662   -311879.52 
   99220    300.91085    163755.31    72.367965    72.367966     36.10539          120    20990.404    16549.055    -36571.43     2249.663   -1356.7544    562.64317    72.367965    62.672497     36.10539    322.67635   -311879.87 
   99230    301.80509    163759.57    72.368592    72.368593    36.105703          120    20839.607    17219.403   -35969.095    1876.2979   -1383.2932    350.48032    72.368592     62.67304    36.105703    696.63853   -311880.52 
   99240    300.08351     163764.2    72.369274    72.369275    36.106043          120    20680.384    17997.492   -35537.561    1346.1582   -1665.7263    90.414486    72.369274    62.673631    36.106043    1046.7717   -311876.67 
   99250    304.53447    163769.35    72.370032    72.370033    36.106421          120    21067.588     17621.01    -36477.06    1832.0277   -551.16417    501.77733    72.370032    62.674287    36.106421    737.17916   -311884.85 
   99260    302.33849    163774.88    72.370847    72.370848    36.106828          120    21238.425    16767.698   -37034.562    1939.2295   -1332.5487     684.6848    72.370847    62.674993    36.106828    323.85394   -311880.44 
   99270    299.86419    163780.56    72.371684    72.371685    36.107246          120     20809.25    16044.043   -37213.623    1670.7719   -735.03271    267.32596    72.371684    62.675718    36.107246   -120.11018   -311875.79 
   99280    300.49684    163786.15    72.372507    72.372508    36.107656          120    20508.989    15279.631   -38000.949    1612.5113   -422.87382    791.51857    72.372507     62.67643    36.107656     -737.443   -311876.57 
   99290    303.62975    163791.37    72.373276    72.373277     36.10804          120    19887.177    15958.089   -37788.336     1645.819   -680.16807    1020.8699    72.373276    62.677096     36.10804   -647.68964   -311882.46 
   99300    301.10944    163796.25    72.373995    72.373996    36.108399          120    20292.355    16556.263   -37796.134    1850.2428   -483.76553     1037.668    72.373995    62.677719    36.108399   -315.83886   -311877.69 
   99310    300.85792    163800.98    72.374691    72.374692    36.108746          120    20990.011    15978.125   -36041.164    1841.0817   -143.45005    780.41066    72.374691    62.678322    36.108746    308.99036   -311876.93 
   99320    300.15917    163805.82    72.375405    72.375405    36.109102          120    20775.624    15904.497   -35826.593    2261.1717    -736.3408    599.07928    72.375405     62.67894    36.109102    284.50918   -311875.38 
   99330    301.09728    163810.79    72.376136    72.376137    36.109467          120     20785.54    15128.032   -36158.091    2213.5179   -890.78336    858.71755    72.376136    62.679573    36.109467   -81.506155   -311877.09 
   99340    303.80262    163815.74    72.376866    72.376866    36.109831          120    20305.679    16059.673   -35447.655     1387.709   -357.16788    599.71927    72.376866    62.680205    36.109831    305.89911   -311883.07 
   99350    300.29861    163820.81    72.377612    72.377612    36.110203          120    20191.123    16319.337   -36677.129    1346.3272   -605.74528    382.41293    72.377612    62.680851    36.110203   -55.556439   -311876.59 
   99360    301.98327    163825.85    72.378355    72.378356    36.110574          120    19959.665    16137.376   -37427.195    2057.8184   -800.72551    717.11873    72.378355    62.681495    36.110574   -443.38459   -311880.15 
   99370    300.10776    163830.65    72.379062    72.379062    36.110926          120    19926.475    15421.226   -38123.423    1692.0135   -938.74193    1616.7715    72.379062    62.682107    36.110926   -925.24082   -311877.01 
   99380    301.53819    163834.97    72.379697    72.379697    36.111243          120    19561.031    15472.627   -38785.008     1942.758   -954.75184    635.29133    72.379697    62.682657    36.111243   -1250.4501   -311880.61 
   99390    299.89346    163838.62    72.380234    72.380235    36.111511          120    19531.472    15095.671   -38760.699    1213.2456   -792.46223    128.24511    72.380234    62.683122    36.111511   -1377.8518    -311877.5 
   99400    304.15083    163841.57    72.380669     72.38067    36.111728          120    19870.782    15366.282    -38132.86    1649.7761   -1118.0954     135.8289    72.380669    62.683499    36.111728   -965.26535   -311885.68 
   99410    300.57908       163844    72.381027    72.381028    36.111907          120    19254.405    15665.449   -37113.559    1856.5364   -150.15143    37.296334    72.381027    62.683809    36.111907   -731.23505   -311879.58 
   99420    300.75114    163846.06     72.38133    72.381331    36.112058          120    19640.446    15707.643   -36364.929    1816.4398    152.30354    1124.8546     72.38133    62.684071    36.112058   -338.94652   -311880.92 
   99430    300.67991    163847.93    72.381606    72.381606    36.112195          120     20502.64    15874.737   -36550.997    1791.1418    86.100832     328.0556    72.381606     62.68431    36.112195   -57.873395   -311881.61 
   99440    300.47981    163849.71    72.381868    72.381869    36.112327          120    20023.984    15014.138   -36920.095    1986.5466   -699.03777    1097.1952    72.381868    62.684537    36.112327   -627.32421   -311882.06 
   99450    299.51002    163851.17    72.382084    72.382084    36.112434          120     19758.62    15413.311   -38248.537    1909.0213   -1300.5307    1787.7403    72.382084    62.684724    36.112434   -1025.5353   -311880.49 
   99460    299.47745    163852.12    72.382223    72.382224    36.112504          120    20265.052    15794.598   -38562.823    2243.4843   -502.80366    1124.2827    72.382223    62.684845    36.112504   -834.39115   -311881.12 
   99470    298.34799    163852.61    72.382296    72.382296     36.11254          120    19822.578    16273.683    -38527.61    2109.6773   -727.55936    1321.8244    72.382296    62.684908     36.11254   -810.44941   -311879.73 
   99480    298.07626    163852.73    72.382313    72.382313    36.112548          120    20497.603    16786.858   -37912.967    2379.8635   -589.03877    533.54357    72.382313    62.684922    36.112548   -209.50194   -311879.55 
   99490    300.93772    163852.71     72.38231     72.38231    36.112547          120    21114.572    16052.086   -37710.141    2193.5864   -571.58004   -438.46762     72.38231     62.68492    36.112547   -181.16104   -311885.87 
   99500     298.3926    163852.56    72.382287    72.382288    36.112536          120    20536.524    15134.509   -37917.994    2155.6815   -405.62357   -1300.6097    72.382287      62.6849    36.112536   -748.98707   -311881.53 
   99510    300.27436    163852.03     72.38221     72.38221    36.112497          120    20020.476     15398.14   -37975.191    2124.6084   -848.29002   -793.66448     72.38221    62.684833    36.112497    -852.1917   -311885.95 
   99520    301.52578    163851.08     72.38207     72.38207    36.112427          120    20152.083    15886.168   -37584.799    2434.2191   -1168.6946   -373.53024     72.38207    62.684712    36.112427   -515.51597   -311888.48 
   99530    298.26934    163849.88    72.381893    72.381893    36.112339          120    19672.104    16835.186   -36267.734     2364.985   -812.62047   -129.61644    72.381893    62.684558    36.112339    79.852012   -311882.62 
   99540    298.71389    163848.68    72.381716    72.381717    36.112251          120      19082.8    17702.697   -36763.386    1934.7175   -1329.7618    574.33823    72.381716    62.684406    36.112251     7.370328   -311884.25 
   99550     297.5085    163847.48     72.38154     72.38154    36.112163          120    19202.291    17345.647     -37318.6    1180.9949   -646.55553    318.88932     72.38154    62.684253    36.112163   -256.88731    -311882.2 
   99560    301.46465    163846.17    72.381347    72.381348    36.112066          120    19792.863    17076.227   -37571.413    884.43346   -562.95702    1308.4257    72.381347    62.684086    36.112066   -234.10782    -311890.4 
   99570    298.24209    163844.73    72.381134    72.381135     36.11196          120    19806.526    16362.849   -37927.931    980.66522   -169.81942    490.94438    72.381134    62.683902     36.11196    -586.1856   -311884.13 
   99580    297.21644       163843     72.38088     72.38088    36.111833          120     19403.22    15758.787   -37342.331    1303.8116    29.931202   -144.61197     72.38088    62.683681    36.111833   -726.77463   -311882.45 
   99590    297.77148    163840.89    72.380569    72.380569    36.111678          120    19613.689    14704.871   -36830.162     2308.216   -865.46486   -562.22985    72.380569    62.683412    36.111678    -837.2008    -311883.6 
   99600    296.58456    163838.34    72.380193    72.380194    36.111491          120    19351.705    15495.853   -37338.947    2062.3104   -956.34057   -810.50962    72.380193    62.683087    36.111491   -830.46309   -311881.34 
   99610    301.17847    163835.39    72.379759     72.37976    36.111274          120    20016.392    16490.972   -36477.636    1709.0348   -1258.8212    266.65167    72.379759    62.682711    36.111274    9.9092181   -311890.46 
   99620    295.24194    163832.43    72.379324    72.379324    36.111057          120    20374.623    16811.359   -36062.145    1373.8043   -1675.8456    583.77524    72.379324    62.682334    36.111057    374.61219   -311879.05 
   99630    299.24847    163829.62    72.378909     72.37891     36.11085          120    19867.052    15479.854   -36402.669    1794.6086    -1330.259    221.78399    72.378909    62.681975     36.11085   -351.92109   -311886.47 
   99640    297.16413    163826.65    72.378472    72.378472    36.110632          120    20233.381    15116.942   -37567.329     1869.595   -1517.1628    215.48585    72.378472    62.681596    36.110632   -739.00235   -311881.84 
   99650    300.23466    163823.34    72.377985    72.377986    36.110389          120    20541.907    15251.689     -37228.8    1937.3557   -819.29693    417.83288    72.377985    62.681174    36.110389    -478.4013   -311887.43 
   99660    300.20743    163819.74    72.377455    72.377456    36.110125          120    19647.491     14851.73   -37834.596    2191.5727   -610.80001    322.76083    72.377455    62.680715    36.110125   -1111.7919   -311887.45 
   99670      298.691    163815.57    72.376841    72.376841    36.109818          120    19423.584     14774.62   -38924.786    2067.7021    244.14355    290.88315    72.376841    62.680184    36.109818    -1575.527   -311883.98 
   99680     297.9247    163810.68     72.37612     72.37612    36.109458          120    20114.106     15446.31   -37216.736    1951.1153    94.011315    67.067621     72.37612    62.679559    36.109458   -552.10659    -311881.8 
   99690    299.83007    163805.43    72.375347    72.375347    36.109073          120    20077.216      15619.6   -37609.301    1707.4214    -997.0623    126.84869    72.375347     62.67889    36.109073   -637.49509   -311884.27 
   99700    299.45012    163799.88    72.374529     72.37453    36.108665          120    19802.691    15835.025   -36655.839    1410.2972   -981.63654    593.62033    72.374529    62.678182    36.108665   -339.37443   -311882.83 
   99710    299.96217    163794.14    72.373685    72.373685    36.108244          120    20584.517    16257.539   -37407.854    841.49106    -446.2804    1053.4441    72.373685     62.67745    36.108244   -188.59913   -311882.67 
   99720     303.8847    163788.34    72.372831    72.372831    36.107817          120     21065.48    17110.888   -36997.565    1475.0491   -1294.2361    874.60295    72.372831     62.67671    36.107817    392.93447   -311889.34 
   99730    299.83231    163782.74    72.372005    72.372006    36.107406          120    20826.893    17695.329   -36499.046    1464.1334   -1234.4877    1091.3871    72.372005    62.675996    36.107406    674.39235    -311879.7 
   99740    301.01376    163777.47    72.371229     72.37123    36.107019          120    21145.016    16936.744   -36651.259    1313.9326   -1441.8886    1087.8619    72.371229    62.675324    36.107019    476.83375   -311880.47 
   99750    301.41362    163772.47    72.370492    72.370493    36.106651          120    21212.986    16831.182   -37362.847    928.18389    -1019.966    1074.4093    72.370492    62.674685    36.106651    227.10695   -311880.45 
   99760    300.09901    163767.61    72.369776    72.369777    36.106294          120    21138.411    16997.079   -37684.346    1412.5734   -434.96917    880.26858    72.369776    62.674065    36.106294    150.38156   -311877.38 
   99770    302.99072    163762.86    72.369077    72.369077    36.105945          120    21143.278    16485.437    -36180.14    2072.5336   -1749.8547    351.01989    72.369077    62.673459    36.105945     482.8583   -311881.97 
   99780    300.43328    163758.36    72.368414    72.368415    36.105614          120    21180.176    16812.954     -36452.1    1901.6611   -824.69265    574.86216    72.368414    62.672886    36.105614    513.67642   -311875.79 
   99790    299.49816    163754.13    72.367791    72.367792    36.105303          120    20664.477    17128.145    -36503.28    1933.1675   -828.11705    155.43166    72.367791    62.672346    36.105303    429.78066   -311872.84 
   99800    301.66721    163750.08    72.367194    72.367194    36.105005          120    20150.552    16497.999   -37638.289    2036.7179   -646.10209   -51.702842    72.367194    62.671829    36.105005   -329.91271   -311876.59 
   99810    301.18006    163745.94    72.366584    72.366585    36.104701          120    20325.838      16763.9   -36727.286    1723.6849   -319.36255    56.882122    72.366584    62.671301    36.104701    120.81754   -311875.47 
   99820    301.47181    163741.86    72.365984    72.365985    36.104402          120    20622.827    17029.491   -36056.238    1537.7369   -1271.8253    306.19222    72.365984    62.670781    36.104402    532.02688   -311875.65 
   99830    304.44827    163738.04    72.365421    72.365422    36.104121          120    21324.066    16612.544   -36765.542     2184.981   -1535.0218    783.43171    72.365421    62.670294    36.104121    390.35612   -311881.31 
   99840    302.07845    163734.41    72.364886    72.364887    36.103854          120    20345.403    15959.175    -37009.34    2281.3952   -1204.4502    640.02581    72.364886     62.66983    36.103854    -234.9206   -311877.06 
   99850    303.64927    163730.69    72.364338    72.364339    36.103581          120    19262.161    16110.104   -36974.644    1863.5857   -314.63795    44.187319    72.364338    62.669356    36.103581   -534.12641   -311880.36 
   99860    303.74687    163726.76    72.363758    72.363759    36.103291          120     20255.47      16393.6   -36502.969    1669.6461    -508.5792   -154.31566    72.363758    62.668853    36.103291    48.700119   -311880.43 
   99870    302.15106    163722.83    72.363179     72.36318    36.103002          120    20797.414    16793.722   -36688.298     1358.267    567.69248    467.02206    72.363179    62.668352    36.103002    300.94603   -311877.38 
   99880    301.65826    163719.05    72.362622    72.362623    36.102724          120    20598.861    16661.102   -36990.744    1217.5987    1198.0214    1345.3109    72.362622     62.66787    36.102724    89.739606   -311876.92 
   99890    303.17887    163715.31    72.362072    72.362073     36.10245          120      20198.5     16059.91   -36463.657    1666.9606     879.7763     275.7697    72.362072    62.667393     36.10245   -68.415692    -311880.6 
   99900    300.78093    163711.59    72.361524    72.361525    36.102176          120    20311.655    16611.565    -34821.55    2265.6658    80.987831       135.48    72.361524    62.666919    36.102176    700.55683   -311876.05 
   99910    302.78154    163708.18    72.361021    72.361021    36.101925          120     20627.05    17174.944   -35870.285    2569.6505   -640.14956    823.66093    72.361021    62.666483    36.101925    643.90293   -311880.24 
   99920    301.72157    163705.09    72.360566    72.360567    36.101699          120    20268.963    16704.052   -36053.105    2680.9507   -673.79505    621.76123    72.360566    62.666089    36.101699    306.63675   -311878.98 
   99930    300.71206    163702.17    72.360136    72.360136    36.101484          120    20103.125    16414.034    -36351.37     2319.448   -1049.2179    755.45832    72.360136    62.665716    36.101484    55.263157   -311876.82 
   99940    302.19029     163699.3    72.359712    72.359713    36.101273          120    20861.251    16320.218   -36699.996    2282.7978   -1175.4736    29.559295    72.359712     62.66535    36.101273    160.49062   -311880.14 
   99950    302.48721    163696.52    72.359303    72.359303    36.101068          120    21188.776    16676.348   -37121.875    2243.9637   -1151.7519   -26.214278    72.359303    62.664995    36.101068    247.74972   -311881.43 
   99960    301.67298     163693.9    72.358917    72.358917    36.100876          120    21215.785    17015.714   -36416.881    1789.3632   -1191.0342   -168.16821    72.358917    62.664661    36.100876     604.8726   -311880.07 
   99970    301.86948    163691.54    72.358569     72.35857    36.100702          120    20010.824    17003.572   -37135.218    2222.8889   -783.45032    11.347605    72.358569     62.66436    36.100702   -40.274048   -311881.22 
   99980    300.76763     163689.2    72.358225    72.358225    36.100531          120    20450.734    16189.739   -37178.205    2035.2524   -466.62647    143.37151    72.358225    62.664062    36.100531   -179.24426   -311879.65 
   99990    299.61779    163686.84    72.357877    72.357878    36.100357          120    21963.249    16720.589   -36003.279    1124.0425   -396.39814    399.17324    72.357877    62.663761    36.100357     893.5193   -311877.59 
  100000    299.78216    163684.92    72.357594    72.357595    36.100216          120     22691.36    17057.285   -35674.806    899.81723   -901.58845    704.03911    72.357594    62.663515    36.100216    1357.9464   -311878.81 
Loop time of 29185.1 on 1 procs for 100000 steps with 14848 atoms

Performance: 0.296 ns/day, 81.070 hours/ns, 3.426 timesteps/s
100.0% CPU use with 1 MPI tasks x no OpenMP threads

MPI task timing breakdown:
Section |  min time  |  avg time  |  max time  |%varavg| %total
---------------------------------------------------------------
Pair    | 23823      | 23823      | 23823      |   0.0 | 81.63
Bond    | 0.01005    | 0.01005    | 0.01005    |   0.0 |  0.00
Kspace  | 1075.9     | 1075.9     | 1075.9     |   0.0 |  3.69
Neigh   | 3606.1     | 3606.1     | 3606.1     |   0.0 | 12.36
Comm    | 36.254     | 36.254     | 36.254     |   0.0 |  0.12
Output  | 1.0327     | 1.0327     | 1.0327     |   0.0 |  0.00
Modify  | 632.93     | 632.93     | 632.93     |   0.0 |  2.17
Other   |            | 9.461      |            |       |  0.03

Nlocal:    14848 ave 14848 max 14848 min
Histogram: 1 0 0 0 0 0 0 0 0 0
Nghost:    46772 ave 46772 max 46772 min
Histogram: 1 0 0 0 0 0 0 0 0 0
Neighs:    1.00527e+07 ave 1.00527e+07 max 1.00527e+07 min
Histogram: 1 0 0 0 0 0 0 0 0 0

Total # of neighbors = 10052741
Ave neighs/atom = 677.043
Ave special neighs/atom = 0
Neighbor list builds = 13134
Dangerous builds = 0
 
All done!
Total wall time: 8:11:28
