LAMMPS (16 Mar 2018)
Reading data file ...
  triclinic box = (0 0 0) to (9.208 7.97436 18.376) with tilt (-4.604 0 0)
  1 by 1 by 1 MPI processor grid
  reading atoms ...
  116 atoms
Finding 1-2 1-3 1-4 neighbors ...
  special bond factors lj:   0          0          0         
  special bond factors coul: 0          0          0         
  0 = max # of 1-2 neighbors
  0 = max # of 1-3 neighbors
  0 = max # of 1-4 neighbors
  1 = max # of special neighbors
Replicating atoms ...
  triclinic box = (0 0 0) to (73.664 63.7949 36.752) with tilt (-36.832 0 0)
  1 by 1 by 1 MPI processor grid
  14848 atoms
Finding 1-2 1-3 1-4 neighbors ...
  special bond factors lj:   0          0          0         
  special bond factors coul: 0          0          0         
  0 = max # of 1-2 neighbors
  0 = max # of 1-3 neighbors
  0 = max # of 1-4 neighbors
  1 = max # of special neighbors
  Time spent = 0.00272799 secs
PPPM initialization ...
WARNING: System is not charge neutral, net charge = -0.2048 (../kspace.cpp:302)
  using 12-bit tables for long-range coulomb (../kspace.cpp:321)
  G vector (1/distance) = 0.201681
  grid = 36 50 24
  stencil order = 5
  estimated absolute RMS force accuracy = 0.00105653
  estimated relative force accuracy = 7.33721e-05
  using double precision FFTs
  3d grid and FFT values/proc = 65395 43200
Neighbor list info ...
  update every 1 steps, delay 0 steps, check yes
  max neighbors/atom: 2000, page size: 100000
  master list distance cutoff = 15.3
  ghost atom cutoff = 15.3
  binsize = 7.65, bins = 15 9 5
  3 neighbor lists, perpetual/occasional/extra = 3 0 0
  (1) pair morse, perpetual
      attributes: half, newton on
      pair build: half/bin/newton/tri
      stencil: half/bin/3d/newton/tri
      bin: standard
  (2) pair buck, perpetual, copy from (1)
      attributes: half, newton on
      pair build: copy
      stencil: none
      bin: none
  (3) pair lj/cut/coul/long, perpetual, copy from (1)
      attributes: half, newton on
      pair build: copy
      stencil: none
      bin: none
Setting up Verlet run ...
  Unit style    : metal
  Current step  : 0
  Time step     : 0.001
Per MPI rank memory allocation (min/avg/max) = 145.7 | 145.7 | 145.7 Mbytes
Step Temp Volume Cella Cellb Cellc CellGamma Pxx Pyy Pzz Pxy Pxz Pyz Lx Ly Lz Press PotEng 
       0          150    172711.88       73.664    73.664001       36.752          120    -209732.9   -209753.25   -280738.74    13.110419   -3.8176049    5.1002701       73.664    63.794896       36.752    -233408.3   -309191.56 
      10    288.53895    172576.45    73.644741    73.644742    36.742392          120   -212938.52   -213023.74   -260340.25    89.515893    -11.26534   -129.85728    73.644741    63.778217    36.742392    -228767.5   -309504.11 
      20    541.03039    172179.31    73.588207    73.588207    36.714186          120   -211958.43   -211604.46   -201159.77    22.240362   -202.81914    -278.2948    73.588207    63.729257    36.714186   -208240.89   -310063.99 
      30    512.49935    171564.13    73.500461    73.500461    36.670408          120    -189800.4   -189299.48   -120114.36   -207.15229    -697.1803   -355.79922    73.500461    63.653267    36.670408   -166404.75   -310110.78 
      40    287.18506    170829.69    73.395429    73.395429    36.618006          120    -151174.5   -151066.42   -40959.886   -452.98394   -1090.4538   -407.00686    73.395429    63.562307    36.618006   -114400.27   -309761.73 
      50    363.04844    170102.62    73.291154    73.291155    36.565982          120   -109187.64   -109400.55   -4399.5538   -561.16027   -1165.3148   -577.43456    73.291154    63.472002    36.565982   -74329.246   -309956.99 
      60    683.81086    169468.06    73.199905    73.199905    36.520456          120   -77273.336   -77178.207   -37532.156   -576.55118   -2092.8692   -452.72981    73.199905    63.392978    36.520456   -63994.566   -310622.72 
      70    879.65056    168934.43    73.122991    73.122992    36.482083          120   -53201.457   -52764.663   -99411.015    -1281.765   -2449.7665   -315.04099    73.122991    63.326369    36.482083   -68459.045   -311085.78 
      80    731.03356    168469.24    73.055811    73.055811    36.448566          120   -36636.196    -36917.67   -143292.08   -1702.7985    -2990.993    174.65755    73.055811    63.268189    36.448566   -72281.981   -310889.31 
      90    453.38257    168039.02     72.99357    72.993571    36.417513          120   -28411.865   -28879.321   -157824.18   -1869.9658   -3567.3286    218.76238     72.99357    63.214287    36.417513   -71705.122   -310422.05 
     100    480.94315    167624.66    72.933524    72.933524    36.387555          120   -13492.076   -13377.574   -137809.78   -1710.6961    -3341.404   -320.62836    72.933524    63.162285    36.387555   -54893.144   -310524.65 
     110    652.80728    167229.77    72.876206    72.876207    36.358959          120    5331.1264    5470.0181   -94451.346   -1791.7592   -2771.5436     -411.945    72.876206    63.112647    36.358959     -27883.4   -310915.52 
     120    638.60045    166871.19    72.824082    72.824082    36.332953          120    15460.752    15621.296   -42255.903   -1737.5877   -2449.0105   -975.48285    72.824082    63.067505    36.332953   -3724.6184   -310956.67 
     130    528.74485    166563.01    72.779223    72.779224    36.310573          120    13018.459    13952.163   -1608.3563   -1844.6166   -2457.1099   -813.07609    72.779223    63.028657    36.310573    8454.0889   -310802.15 
     140    489.88031    166307.45    72.741982    72.741982    36.291992          120    7762.6455    7903.5517    9640.9173   -1460.5569   -2438.0685   -696.51783    72.741982    62.996405    36.291992    8435.7048   -310772.58 
     150    553.01986    166094.87    72.710975    72.710976    36.276523          120    529.65047    1374.7975   -16121.484   -1751.1217   -1996.5935   -300.33679    72.710975    62.969552    36.276523   -4739.0121   -310942.23 
     160    607.44103    165905.38    72.683314    72.683314    36.262722          120   -9831.1205   -8188.0846    -54703.21    -1526.399   -2078.8727   -234.84495    72.683314    62.945597    36.262722   -24240.805   -311107.73 
     170    569.33833     165716.7    72.655749    72.655749    36.248969          120   -14749.162   -12639.361   -84375.169   -629.73059   -2642.4884   -559.91554    72.655749    62.921725    36.248969   -37254.564   -311100.34 
     180    488.74837    165515.66    72.626356    72.626357    36.234305          120   -10709.938   -8553.5284   -99682.839   -415.13646   -2719.7227   -593.14489    72.626356     62.89627    36.234305   -39648.769   -311003.64 
     190    474.68537    165301.33    72.594995    72.594995    36.218658          120    -4999.654   -2909.7695    -94616.78    171.72111   -2311.8795   -382.44561    72.594995     62.86911    36.218658   -34175.401    -311027.1 
     200    514.06793    165081.05    72.562733    72.562734    36.202563          120   -709.78418    1199.3693   -73053.095   -309.38347   -2259.9884   -231.70864    72.562733    62.841171    36.202563   -24187.837   -311155.32 
     210     511.9454    164865.78    72.531179    72.531179     36.18682          120    3426.4462    5424.0144   -47954.573   -803.33963    -2599.534   -210.37741    72.531179    62.813844     36.18682   -13034.704   -311206.29 
     220    475.54469    164666.01    72.501872    72.501872    36.172198          120    6896.1692      8109.32   -29220.546   -336.33293   -2422.9441   -774.87837    72.501872    62.788463    36.172198   -4738.3522   -311187.14 
     230    455.52423    164487.67    72.475688    72.475688    36.159134          120    7731.3333    7787.0063   -24534.006   -19.084251   -2131.1152    -1472.393    72.475688    62.765787    36.159134   -3005.2223   -311194.67 
     240    465.09845     164329.5    72.452449     72.45245     36.14754          120    5572.2793    4700.4299   -32715.371   -193.63822   -2307.9058   -1617.3559    72.452449    62.745662     36.14754   -7480.8872   -311258.16 
     250    476.91564    164184.45    72.431126    72.431126    36.136902          120    3196.4621    2045.8165   -48486.526   -180.11274   -2159.0163   -1834.2552    72.431126    62.727195    36.136902   -14414.749   -311329.41 
     260    460.72195    164044.11    72.410482    72.410483    36.126602          120    3539.7621    1553.8139   -63512.644   -166.60948   -1913.2028   -1729.2782    72.410482    62.709318    36.126602   -19473.023   -311347.32 
     270     429.7069    163902.78    72.389682    72.389683    36.116225          120    4572.5006    2610.0718   -70718.324   -799.91535   -1559.9825   -1184.0952    72.389682    62.691305    36.116225   -21178.584   -311334.34 
     280    415.99266    163758.84    72.368484    72.368485    36.105649          120    5937.3555    4980.1528   -67084.621    -543.5788   -1009.8648   -694.35231    72.368484    62.672946    36.105649   -18722.371   -311350.68 
     290    422.63572    163614.89    72.347273    72.347274    36.095067          120    9070.8904    9263.6644    -55211.09   -573.09968   -1199.8351   -6.3404885    72.347273    62.654577    36.095067   -12292.178   -311405.77 
     300    419.40439    163476.85    72.326921    72.326922    36.084913          120    12914.689    12814.495   -40043.116   -252.78661   -1371.2437   -159.36685    72.326921    62.636952    36.084913   -4771.3106   -311441.48 
     310    404.82891     163350.9    72.308343    72.308343    36.075644          120    14247.656    14530.773   -27150.289    520.30587   -1812.8281   -246.94092    72.308343    62.620862    36.075644    542.71346   -311454.18 
     320    394.00406    163240.37    72.292029     72.29203    36.067505          120    13470.595    13582.209   -21764.424    190.04314   -2132.5719   -802.31699    72.292029    62.606734    36.067505     1762.793   -311471.78 
     330    389.67176    163144.38    72.277857    72.277857    36.060434          120    11721.114    12359.392   -24918.276   -168.81834   -2260.5934   -1247.9063    72.277857    62.594461    36.060434   -279.25633   -311500.51 
     340    386.85934    163059.08    72.265258    72.265258    36.054148          120     10893.54      11501.9   -35205.533   -15.291195   -1891.9519   -1176.7333    72.265258     62.58355    36.054148   -4270.0311   -311531.73 
     350     375.4408    162979.29    72.253468    72.253469    36.048266          120    10765.069    11321.892   -46132.811   -190.71918    -1101.295   -1190.6956    72.253468     62.57334    36.048266   -8015.2834    -311545.7 
     360    360.20444    162900.73    72.241857    72.241858    36.042473          120    11119.977    12580.133   -51357.162   -344.53571   -1089.6504    -1859.032    72.241857    62.563284    36.042473   -9219.0176   -311550.69 
     370    348.97552    162821.97    72.230213    72.230213    36.036663          120    12597.121    14817.408   -50529.767   -556.60316     -1823.46   -2457.1521    72.230213      62.5532    36.036663   -7705.0795   -311561.85 
     380    347.71564    162744.29    72.218724    72.218724    36.030932          120     14926.21    16566.427   -44417.421   -308.03992   -1659.8315   -2366.9121    72.218724     62.54325    36.030932   -4308.2615   -311591.21 
     390    345.96759    162670.71     72.20784     72.20784    36.025501          120     16804.67    18038.705    -34261.87   -115.05796   -1844.3337   -2086.3646     72.20784    62.533824    36.025501     193.8352   -311619.04 
     400    333.74203    162604.93    72.198104    72.198105    36.020644          120    18175.684    18816.615   -25401.363    91.367348   -2402.0749   -1628.6923    72.198104    62.525393    36.020644    3863.6453   -311626.19 
     410    325.72648    162549.41    72.189887    72.189887    36.016544          120     18778.52     18909.06   -23003.283    364.10163   -2120.1089   -1739.1822    72.189887    62.518276    36.016544    4894.7654   -311640.07 
     420    323.24241    162504.02    72.183167    72.183168    36.013192          120     17629.51    18300.998   -25614.693    141.46146   -2174.0581   -1406.1192    72.183167    62.512457    36.013192    3438.6052    -311663.8 
     430    318.90446    162466.33    72.177585    72.177586    36.010407          120    16072.386    17048.306   -31314.407     370.2734   -2116.4741   -1243.3631    72.177585    62.507623    36.010407    602.09511   -311684.19 
     440    310.08148     162432.8     72.17262    72.172621     36.00793          120    15696.093    15421.541   -38069.751    550.57284   -2445.9471    -739.1837     72.17262    62.503323     36.00793   -2317.3722   -311694.14 
     450    298.82642    162400.29    72.167805    72.167806    36.005527          120     17042.71    14902.831   -41714.122    303.01351   -2368.6647    -342.0969    72.167805    62.499153    36.005527    -3256.194   -311698.06 
     460    295.42668    162367.84    72.162997    72.162998    36.003129          120    19817.696    16717.879   -40921.264    399.04145   -2145.7458   -626.61381    72.162997    62.494989    36.003129   -1461.8966   -311716.33 
     470    292.10976    162336.95    72.158422    72.158422    36.000846          120    21297.203    18243.721   -36194.391    374.85267   -2163.1442   -492.36356    72.158422    62.491027    36.000846    1115.5109   -311734.35 
     480    286.61728    162309.98    72.154424    72.154425    35.998852          120    21941.244    19454.958   -29656.543    678.94716    -1812.736      -990.95    72.154424    62.487565    35.998852    3913.2194    -311747.4 
     490    280.91748    162289.14    72.151336    72.151337    35.997311          120    21731.027    21052.955   -25677.019    842.97687   -1873.8694   -981.12811    72.151336    62.484891    35.997311    5702.3208   -311759.27 
     500    274.95848    162275.55    72.149322    72.149323    35.996306          120    20501.754    21308.977   -24894.258    631.31824    -2186.032   -465.48296    72.149322    62.483147    35.996306    5638.8245   -311769.48 
     510    269.86743    162268.54    72.148284    72.148285    35.995788          120    19464.163    20362.018   -27175.908    727.13282    -2269.164   -601.69888    72.148284    62.482248    35.995788     4216.758   -311781.47 
     520    266.19659    162266.28    72.147949     72.14795    35.995621          120    18942.518    20290.404    -30538.84    470.46239   -2231.2053   -307.74741    72.147949    62.481957    35.995621    2898.0273   -311794.72 
     530    262.69944    162267.03     72.14806     72.14806    35.995676          120    18545.774    20445.991   -34275.507    188.27373    -2210.395   -190.27566     72.14806    62.482053    35.995676    1572.0862   -311808.21 
     540    258.15347    162269.31    72.148397    72.148398    35.995845          120    18351.092    20594.361   -36276.687    353.99477   -1967.3808    63.617299    72.148397    62.482345    35.995845    889.58888   -311819.53 
     550    248.72014    162272.32    72.148844    72.148845    35.996068          120    18360.202    20067.143   -35989.267     419.6251   -1708.4553   -316.52656    72.148844    62.482733    35.996068    812.69286   -311820.29 
     560    245.11618    162275.97    72.149385    72.149385    35.996337          120    18733.306    20138.925   -34125.557    39.820197   -1760.5957    110.63337    72.149385      62.4832    35.996337    1582.2245   -311831.14 
     570    241.19013    162281.02    72.150134    72.150134    35.996711          120    19999.015    20647.575    -29832.19    242.91435   -1622.2122    80.278602    72.150134    62.483849    35.996711    3604.7999   -311841.69 
     580    239.46212    162289.18    72.151342    72.151343    35.997314          120    20715.635    21202.912   -27444.175    706.52602    -1258.478   -345.16239    72.151342    62.484896    35.997314    4824.7905   -311855.76 
     590    236.95854    162301.44     72.15316    72.153161    35.998221          120    20841.739    21128.218   -25876.642    983.28788   -1535.2674   -323.24735     72.15316     62.48647    35.998221    5364.4382   -311867.69 
     600    232.72241    162317.99    72.155612    72.155613    35.999444          120    20595.688    20723.923   -27207.652    980.29653   -1498.4437   -655.23964    72.155612    62.488594    35.999444    4703.9864   -311876.35 
     610    229.42804     162337.9    72.158562    72.158563    36.000916          120    20036.729    19920.594   -30210.861    679.52074   -1632.3917   -1302.5793    72.158562    62.491149    36.000916    3248.8206   -311885.45 
     620    225.53088    162359.56    72.161771    72.161772    36.002517          120    19381.571    18751.219   -33098.975    202.89617   -1555.4063   -1639.6735    72.161771    62.493928    36.002517    1677.9382   -311893.17 
     630    222.45001    162381.37    72.165002    72.165002    36.004129          120    19051.018    18535.417   -35573.022    -575.7494   -1422.9525    -1295.344    72.165002    62.496725    36.004129    671.13744   -311902.47 
     640    217.28746    162402.38    72.168115    72.168115    36.005682          120    19321.192    18556.056   -35588.903   -260.05931   -1021.8562   -1000.5022    72.168115    62.499421    36.005682    762.78169   -311907.08 
     650    214.75113    162422.76    72.171133    72.171134    36.007188          120    20068.558    18878.399   -33681.363    289.04956   -1281.4527   -845.00836    72.171133    62.502035    36.007188    1755.1981   -311916.48 
     660    212.44942    162443.51    72.174207    72.174207    36.008721          120    20547.901    20006.764    -30873.51    399.25477   -1090.5972   -951.30773    72.174207    62.504697    36.008721    3227.0516   -311925.68 
     670    207.58573    162465.98    72.177533    72.177534    36.010381          120    20554.118     20657.07   -28935.039    478.34016   -1046.3378   -650.58818    72.177533    62.507578    36.010381    4092.0493   -311929.88 
     680    203.42274    162490.85    72.181217    72.181217    36.012219          120    19655.757    20078.521   -28817.589    340.23561   -1368.8496   -566.70113    72.181217    62.510768    36.012219    3638.8963    -311934.6 
     690    201.04691    162517.57    72.185173    72.185174    36.014193          120    18062.885     19506.87   -30890.313    58.662146   -1429.9067   -1006.1408    72.185173    62.514194    36.014193    2226.4804   -311942.61 
     700     197.1867    162544.71    72.189191    72.189192    36.016197          120    17273.614    18802.505   -33353.711   -181.06005   -2051.3669    -610.9957    72.189191    62.517674    36.016197    907.46937   -311946.94 
     710      196.471    162570.94    72.193074    72.193075    36.018135          120    16290.868    18673.172   -35554.334   -235.63664   -2416.2428   -1058.8825    72.193074    62.521037    36.018135     -196.765   -311956.68 
     720    195.62606    162595.29    72.196678    72.196679    36.019933          120     15830.78     18632.02   -36297.573    201.71473   -2324.9018   -1733.0502    72.196678    62.524158    36.019933   -611.59114    -311966.6 
     730    191.13404     162617.5    72.199965    72.199966    36.021572          120    16238.918    18420.235    -35681.12    392.31122   -1959.0436   -1645.4182    72.199965    62.527004    36.021572    -340.6558    -311968.6 
     740    189.60472    162637.93    72.202989     72.20299    36.023081          120    16798.372    18245.377   -34885.223    280.94489   -1472.5186   -1639.6317    72.202989    62.529623    36.023081    52.841779   -311975.94 
     750    186.02607    162657.06     72.20582     72.20582    36.024493          120    16855.564    17236.533   -33669.239   -53.469948   -1335.3047    -1449.362     72.20582    62.532075    36.024493    140.95241    -311979.8 
     760    184.34396    162675.12    72.208492    72.208493    36.025827          120    16455.296    17176.235    -32443.38   -179.90766    -1252.474   -924.95347    72.208492    62.534389    36.025827    396.05072   -311986.58 
     770    182.00502    162692.43    72.211052    72.211053    36.027104          120    16124.352    17696.019   -32048.652    246.65372   -1118.6226   -453.80089    72.211052    62.536606    36.027104    590.57306   -311991.32 
     780    179.64636    162709.19    72.213532    72.213533    36.028341          120    16261.751    17622.385   -32863.957    340.98815   -1043.2781   -548.76257    72.213532    62.538754    36.028341    340.05965   -311996.51 
     790    176.57615    162725.21    72.215902    72.215903    36.029524          120    16048.071     17532.58   -34516.022    509.66623   -1144.3211   -394.98828    72.215902    62.540807    36.029524   -311.79018   -311999.68 
     800    174.84341    162739.92    72.218078    72.218078    36.030609          120     15842.52    17187.138   -36144.601     412.6192   -1079.1114   -759.81375    72.218078    62.542691    36.030609   -1038.3147   -312005.01 
     810    174.48048    162752.67    72.219964    72.219964     36.03155          120    15635.086    16600.163   -37329.825    345.54403   -1224.4409   -929.11331    72.219964    62.544324     36.03155   -1698.1921   -312012.52 
     820    172.16062    162763.02    72.221495    72.221495    36.032314          120    15751.082    16582.435   -36707.659   -2.0931937   -1032.4362   -1434.0544    72.221495     62.54565    36.032314   -1458.0474   -312016.51 
     830    170.34679    162771.31    72.222722    72.222722    36.032926          120    16068.622    17129.691   -35642.313   -149.68171   -1080.3915   -2215.6801    72.222722    62.546712    36.032926   -814.66667   -312021.45 
     840    167.44417    162778.27     72.22375    72.223751    36.033439          120    16194.473    17234.898   -34693.774    247.74173   -1093.2869   -2487.7645     72.22375    62.547603    36.033439   -421.46762   -312023.35 
     850     165.0467    162784.39    72.224655    72.224656    36.033891          120    16217.186    17170.213   -33478.337    202.65865   -953.47458   -2003.2812    72.224655    62.548387    36.033891   -30.312801   -312026.08 
     860    164.21505    162790.09    72.225499      72.2255    36.034312          120    16764.995    16912.683   -33249.049    438.60119    -1554.632   -1728.4587    72.225499    62.549118    36.034312     142.8763   -312030.74 
     870    164.04367    162795.57    72.226308    72.226309    36.034716          120    17101.089    16446.175    -33911.84    453.46359   -1053.9312   -1688.4222    72.226308    62.549819    36.034716   -121.52528   -312037.53 
     880    162.20923     162800.6    72.227052    72.227053    36.035087          120    17152.494     16321.57   -34767.391    329.00822   -999.69686    -1343.252    72.227052    62.550463    36.035087   -431.10888   -312040.25 
     890    160.88898    162804.89    72.227688    72.227688    36.035404          120    17150.982    15979.427   -35481.301    325.08159    -1049.775   -1171.4793    72.227688    62.551013    36.035404   -783.63062   -312044.42 
     900    158.08588    162808.16    72.228171    72.228172    36.035645          120    16673.187    16011.708   -35944.315    390.10968   -1239.4021   -1027.1968    72.228171    62.551432    36.035645   -1086.4734   -312044.96 
     910    157.73492    162810.19    72.228471    72.228471    36.035794          120    16684.659      16189.9   -36169.048    494.96259   -1321.2254   -855.53849    72.228471    62.551691    36.035794    -1098.163   -312050.01 
     920    155.39921    162811.03    72.228595    72.228596    36.035856          120    16826.639    16766.293   -35773.383     774.1645   -1005.6618   -1441.0653    72.228595    62.551799    36.035856   -726.81703   -312051.36 
     930    153.97955    162811.08    72.228603    72.228603     36.03586          120    16695.308    16811.365   -35022.799    744.22265   -800.10137   -1429.2716    72.228603    62.551805     36.03586   -505.37517   -312054.36 
     940    152.16197     162810.6    72.228532    72.228532    36.035825          120    16349.281    16577.112   -34377.134    720.68984   -1172.4051   -1125.6568    72.228532    62.551744    36.035825   -483.58024   -312055.63 
     950    152.64857    162809.65    72.228391    72.228391    36.035755          120    16094.831    17305.711   -34703.452    751.87399   -1595.8627   -1520.0314    72.228391    62.551622    36.035755   -434.30313   -312061.44 
     960    152.34971    162808.33    72.228196    72.228196    36.035657          120    16318.421    17670.254   -34955.963    518.57849   -1017.3791   -1689.0572    72.228196    62.551453    36.035657   -322.42928   -312065.73 
     970    150.45503    162806.73    72.227959     72.22796    36.035539          120    16153.022    17613.877   -35141.925    625.81573    -1014.229   -1560.6335    72.227959    62.551248    36.035539   -458.34218    -312066.9 
     980     149.0386    162804.77     72.22767    72.227671    36.035395          120    16451.976    17469.653   -35244.756    1111.0815   -853.12955   -1362.4422     72.22767    62.550998    36.035395   -441.04251   -312068.59 
     990    148.22746    162802.44    72.227325    72.227326    36.035223          120    16559.219    17379.212   -35993.522    1026.6675   -1123.7562   -1336.3836    72.227325    62.550699    36.035223   -685.03025   -312071.06 
    1000    147.06245    162799.58    72.226902    72.226903    36.035012          120     16905.39     17571.03   -36512.403    867.23277   -1227.7903   -1332.3007    72.226902    62.550333    36.035012   -678.66074   -312072.43 
Loop time of 295.68 on 1 procs for 1000 steps with 14848 atoms

Performance: 0.292 ns/day, 82.133 hours/ns, 3.382 timesteps/s
100.0% CPU use with 1 MPI tasks x no OpenMP threads

MPI task timing breakdown:
Section |  min time  |  avg time  |  max time  |%varavg| %total
---------------------------------------------------------------
Pair    | 238.05     | 238.05     | 238.05     |   0.0 | 80.51
Bond    | 0.00014424 | 0.00014424 | 0.00014424 |   0.0 |  0.00
Kspace  | 10.812     | 10.812     | 10.812     |   0.0 |  3.66
Neigh   | 40.129     | 40.129     | 40.129     |   0.0 | 13.57
Comm    | 0.37976    | 0.37976    | 0.37976    |   0.0 |  0.13
Output  | 0.010465   | 0.010465   | 0.010465   |   0.0 |  0.00
Modify  | 6.1975     | 6.1975     | 6.1975     |   0.0 |  2.10
Other   |            | 0.09724    |            |       |  0.03

Nlocal:    14848 ave 14848 max 14848 min
Histogram: 1 0 0 0 0 0 0 0 0 0
Nghost:    46893 ave 46893 max 46893 min
Histogram: 1 0 0 0 0 0 0 0 0 0
Neighs:    1.01097e+07 ave 1.01097e+07 max 1.01097e+07 min
Histogram: 1 0 0 0 0 0 0 0 0 0

Total # of neighbors = 10109674
Ave neighs/atom = 680.878
Ave special neighs/atom = 0
Neighbor list builds = 146
Dangerous builds = 0
PPPM initialization ...
  using 12-bit tables for long-range coulomb (../kspace.cpp:321)
  G vector (1/distance) = 0.202647
  grid = 36 50 24
  stencil order = 5
  estimated absolute RMS force accuracy = 0.000995005
  estimated relative force accuracy = 6.90993e-05
  using double precision FFTs
  3d grid and FFT values/proc = 65395 43200
Setting up Verlet run ...
  Unit style    : metal
  Current step  : 0
  Time step     : 0.001
Per MPI rank memory allocation (min/avg/max) = 152.6 | 152.6 | 152.6 Mbytes
Step Temp Volume Cella Cellb Cellc CellGamma Pxx Pyy Pzz Pxy Pxz Pyz Lx Ly Lz Press PotEng 
       0    147.06245    162799.58    72.226902    72.226903    36.035012          120    16917.923    17584.137   -36504.859    867.77557   -1227.6928   -1332.4884    72.226902    62.550333    36.035012   -667.59965   -312072.24 
      10    147.52038    162796.18    72.226399      72.2264    36.034761          120    16565.914    17483.768   -36305.691    500.66699   -850.12693   -1430.0039    72.226399    62.549897    36.034761   -752.00312   -312076.59 
      20    146.06324    162792.23    72.225815    72.225816    36.034469          120    16190.653    17497.605   -35459.299    708.29203   -1067.8486   -1260.1237    72.225815    62.549391    36.034469   -590.34709   -312076.96 
      30    145.05043    162787.88    72.225172    72.225172    36.034148          120    16119.605    17679.323   -35141.151    427.77066   -1308.2942   -1082.1153    72.225172    62.548834    36.034148   -447.40767   -312078.02 
      40    145.90355    162783.29    72.224493    72.224494     36.03381          120    16117.541    17578.173   -35150.187    228.49708   -1360.6944   -1038.7194    72.224493    62.548247     36.03381   -484.82452   -312082.39 
      50    144.69712    162778.45    72.223777    72.223778    36.033453          120    16286.721    16919.098    -35242.71    390.22993   -1123.2478    -1176.775    72.223777    62.547626    36.033453   -678.96354   -312082.52 
      60     143.2496    162773.21    72.223002    72.223002    36.033066          120    17032.108    16433.412   -35295.683    698.86927   -1322.4816   -1323.5224    72.223002    62.546955    36.033066     -610.054    -312081.9 
      70    144.23862    162767.66    72.222181    72.222181    36.032656          120    17445.153    16917.355   -34943.343     579.9623   -962.50325   -1247.4851    72.222181    62.546244    36.032656   -193.61175   -312085.75 
      80    144.34526    162762.15    72.221366    72.221366     36.03225          120    17533.317    17196.937   -35303.112    118.46157   -691.46505   -1232.7966    72.221366    62.545538     36.03225    -190.9528    -312087.4 
      90    142.85715    162756.75    72.220567    72.220568    36.031851          120    17248.272    17741.923   -35251.626   -33.189272   -771.35939   -1701.6423    72.220567    62.544846    36.031851   -87.143789   -312085.97 
     100    142.59223     162751.5    72.219791    72.219791    36.031464          120    16719.984    17641.674   -35134.941    -273.2284   -1273.2368   -1967.2096    72.219791    62.544174    36.031464   -257.76098   -312086.95 
     110    141.47329    162746.28    72.219019    72.219019    36.031079          120    16499.122    17567.514   -34729.713   -395.84723   -1395.3704    -2247.035    72.219019    62.543505    36.031079   -221.02531    -312086.1 
     120     141.1946    162741.14    72.218259     72.21826      36.0307          120    16928.376    17748.428   -33722.437   -240.17215   -1878.5391   -2135.2136    72.218259    62.542848      36.0307    318.12232   -312085.68 
     130    142.69453    162736.55     72.21758    72.217581    36.030361          120    17269.202     17976.19   -33450.744    162.64563   -1771.7495    -2368.798     72.21758     62.54226    36.030361    598.21604   -312089.13 
     140    143.50304    162732.77    72.217021    72.217021    36.030082          120    17215.597    18267.424    -33705.73    570.53656    -1827.684   -1957.7697    72.217021    62.541775    36.030082    592.43058   -312090.75 
     150    142.65082    162729.76    72.216576    72.216576     36.02986          120    17252.773    18329.101   -34510.907    359.55881   -1622.0686      -1681.3    72.216576     62.54139     36.02986     356.9891   -312088.98 
     160    142.27561    162727.26    72.216205    72.216206    36.029675          120    17218.235    17809.392   -35015.319    342.46793   -1102.2917    -1450.681    72.216205    62.541069    36.029675    4.1027531   -312087.72 
     170    142.48217    162724.89    72.215855    72.215856      36.0295          120    17076.723    17241.353   -34936.354    230.93762   -626.62502   -1160.2198    72.215855    62.540766      36.0295   -206.09261   -312087.21 
     180    143.86712    162722.49    72.215499      72.2155    36.029323          120    17697.998    18022.005   -35354.187    448.47746   -1040.4438   -1303.2747    72.215499    62.540458    36.029323    121.93877   -312088.65 
     190    144.32964    162720.33    72.215181    72.215181    36.029164          120    18238.903    18461.315   -34922.479    815.92412   -1323.5193   -1606.6139    72.215181    62.540182    36.029164     592.5795   -312088.41 
     200    144.44781    162718.84    72.214961    72.214961    36.029054          120    18171.586    18879.095   -34836.576    1102.4333   -1066.9783   -1706.8437    72.214961    62.539991    36.029054    738.03514   -312087.39 
     210    145.86479    162718.17     72.21486    72.214861    36.029004          120    18079.999    18862.112   -34118.231     1226.646   -1161.7074   -1958.8954     72.21486    62.539904    36.029004    941.29346   -312088.25 
     220    145.78018    162718.47    72.214905    72.214906    36.029026          120    18387.665    18732.839   -33619.196    948.93072   -1282.5297   -2389.1505    72.214905    62.539943    36.029026    1167.1023   -312086.08 
     230    146.95176    162719.91    72.215118    72.215119    36.029133          120    18256.408    18947.144   -33868.182    963.64022   -1077.9776   -1929.2156    72.215118    62.540127    36.029133    1111.7897   -312086.24 
     240    147.03447     162722.4    72.215486    72.215487    36.029316          120    18061.727    19002.363   -34000.463     454.0445   -536.89706   -1385.1569    72.215486    62.540446    36.029316    1021.2092   -312084.36 
     250    148.67589    162725.79    72.215988    72.215989    36.029567          120     18090.85    18671.538   -34163.183      281.719   -293.56083   -1639.6148    72.215988    62.540881    36.029567    866.40142   -312085.28 
     260    149.45323    162729.93    72.216601    72.216601    36.029872          120     18502.35     18623.88   -34558.576    361.85828   -409.82299    -1983.979    72.216601    62.541412    36.029872    855.88453   -312084.24 
     270    148.78117    162734.71    72.217308    72.217309    36.030225          120    17979.572    18954.991   -35151.471    447.39823    -943.4128   -1748.2234    72.217308    62.542024    36.030225      594.364   -312081.22 
     280    148.89557    162739.89    72.218074    72.218075    36.030608          120    17831.259     18821.65   -34942.403    453.37902   -1144.3213   -1161.6833    72.218074    62.542688    36.030608    570.16888   -312079.34 
     290    150.87839    162745.42    72.218891    72.218892    36.031015          120    18218.266    18267.971   -34396.564    665.03766   -1076.1952   -1293.5247    72.218891    62.543395    36.031015     696.5578    -312081.3 
     300    150.87667    162751.35     72.21977     72.21977    36.031453          120     17720.23    18221.747   -34352.583    933.04235   -1122.1373   -1934.9765     72.21977    62.544156    36.031453    529.79787   -312079.37 
     310    151.60987    162757.59    72.220691    72.220692    36.031913          120    17997.514    18332.416   -34511.465    997.80607   -1160.4798   -1991.6163    72.220691    62.544954    36.031913    606.15502   -312078.51 
     320    153.24803    162764.17    72.221665    72.221666    36.032399          120    18192.564    18365.059   -33545.954    1009.5623   -948.74535   -1539.3376    72.221665    62.545798    36.032399    1003.8896   -312079.49 
     330    151.78913    162771.46    72.222743    72.222744    36.032937          120    18495.553    18327.991   -33310.431    765.64908   -642.92601   -1030.9771    72.222743    62.546731    36.032937    1171.0375   -312074.69 
     340    151.66367    162779.56    72.223942    72.223943    36.033535          120     18173.98    18812.119   -34251.715    338.68368   -650.86212   -1236.6891    72.223942    62.547769    36.033535     911.4612   -312072.51 
     350    154.12703    162788.15    72.225212    72.225212    36.034168          120    17364.514     18263.69   -35601.907    516.52213   -844.77823   -1419.5912    72.225212    62.548869    36.034168     8.765896   -312075.82 
     360    154.14918     162796.4    72.226431    72.226432    36.034777          120    17122.414    18003.163   -36402.095     817.7291   -790.95959   -1895.4042    72.226431    62.549925    36.034777   -425.50607   -312074.42 
     370    153.80484    162803.95    72.227548    72.227548    36.035334          120    17934.752    18341.668   -35577.001    563.34141    -717.6052   -2318.8827    72.227548    62.550892    36.035334    233.13986   -312072.16 
     380    153.73291    162811.36    72.228644    72.228644    36.035881          120     18195.34    18225.756   -34736.345    855.21301   -376.79688   -2439.5334    72.228644    62.551841    36.035881    561.58389   -312070.32 
     390    157.55951    162818.96    72.229769    72.229769    36.036442          120    18059.065    17677.337   -34425.682    1206.1248   -288.03172   -2495.8459    72.229769    62.552815    36.036442    436.90659    -312076.8 
     400    155.24374    162826.64    72.230904    72.230905    36.037008          120    17733.288    17028.922   -34764.036    971.49975   -516.70691   -1944.6399    72.230904    62.553798    36.037008  -0.60860266   -312071.52 
     410    155.09951       162834    72.231992    72.231993    36.037551          120    17128.379    17123.228   -34791.808    857.09141   -804.89321    -1441.448    72.231992    62.554741    36.037551   -180.06696   -312070.72 
     420    157.19103    162840.86    72.233007    72.233007    36.038057          120    16996.047    16936.022   -35076.818    630.75581   -1066.7814   -1089.1231    72.233007    62.555619    36.038057   -381.58289   -312074.46 
     430    154.00222    162847.01    72.233916    72.233916    36.038511          120    16763.164    16991.765   -36100.137    258.08776   -898.37344   -1212.4952    72.233916    62.556407    36.038511   -781.73606   -312067.83 
     440    154.47552    162852.16    72.234677    72.234677    36.038891          120    16669.001    17500.103    -36042.09    1030.4798   -966.24333   -1711.9589    72.234677    62.557066    36.038891   -624.32853   -312068.81 
     450    155.80435    162856.46    72.235312    72.235313    36.039208          120    17116.723    17883.308   -35949.106    1287.9836   -959.84954   -2338.9134    72.235312    62.557616    36.039208   -316.35818   -312071.44 
     460    155.01513    162860.23    72.235871    72.235871    36.039486          120    17079.942    17983.053   -35612.673     943.8083   -959.15927   -2956.2053    72.235871      62.5581    36.039486   -183.22604   -312070.15 
     470    155.54973    162863.64    72.236374    72.236375    36.039738          120    17166.066    18000.693   -35650.039    589.89143   -768.68544   -3016.3322    72.236374    62.558536    36.039738   -161.09323   -312072.36 
     480    156.75563    162866.79     72.23684     72.23684     36.03997          120    17538.638    18271.865   -34880.724    357.80708   -626.92924    -2619.727     72.23684    62.558939     36.03997    309.92645   -312075.72 
     490    156.04714    162870.12    72.237333    72.237333    36.040216          120    17755.664    18391.358   -33684.659    446.59262   -316.91373   -2314.8652    72.237333    62.559366    36.040216    820.78787   -312075.36 
     500    155.64571    162874.12    72.237924    72.237924    36.040511          120    17909.321    18552.275   -33564.391    911.51181   -220.18674   -1774.8874    72.237924    62.559878    36.040511    965.73483   -312075.61 
     510    156.77063    162878.89     72.23863     72.23863    36.040863          120    17952.382    18211.648   -33917.392    1257.2779   -300.42741   -1816.9077     72.23863    62.560489    36.040863    748.87926   -312079.73 
     520    155.05363    162884.22    72.239417    72.239418    36.041256          120    17914.485    17578.456    -34384.96    1253.0507   -128.84758   -1666.3808    72.239417    62.561171    36.041256    369.32701   -312077.84 
     530    154.17883    162889.66    72.240221    72.240222    36.041657          120    17140.271    16987.627   -35225.779    1032.7728   -257.46753   -1614.2901    72.240221    62.561868    36.041657   -365.96045   -312078.09 
     540    152.20819    162894.51    72.240939    72.240939    36.042015          120    16395.293    16649.413   -35744.013    747.60917   -336.80805   -1963.7355    72.240939    62.562489    36.042015   -899.76921   -312076.58 
     550    153.46724    162898.27    72.241493    72.241494    36.042292          120    16230.816    16568.807   -35995.194    552.57263    -839.0123    -2057.931    72.241493    62.562969    36.042292   -1065.1906   -312081.03 
     560    152.97053    162900.81    72.241869     72.24187    36.042479          120    16447.751    16547.612   -36068.537    608.39238   -1509.8634   -2068.9381    72.241869    62.563295    36.042479   -1024.3915   -312082.15 
     570    151.64481    162902.18    72.242072    72.242072     36.04258          120    16265.484    16373.091   -36057.941    826.26469   -1505.4475   -2488.6703    72.242072     62.56347     36.04258   -1139.7884   -312082.04 
     580    150.67612    162902.37    72.242101    72.242101    36.042595          120    16145.407    16582.745   -35268.128    924.82548   -1143.0681   -2124.7217    72.242101    62.563495    36.042595   -846.65848   -312082.57 
     590    149.60327    162901.69    72.241999       72.242    36.042544          120    16486.634    17092.122   -35480.773    547.35194   -1129.2557   -2015.1657    72.241999    62.563407    36.042544   -634.00552   -312083.11 
     600    149.10764     162900.4    72.241808    72.241809    36.042449          120      16908.9    17340.462   -35283.511    416.44534   -695.77311    -1630.444    72.241808    62.563242    36.042449   -344.71656   -312084.38 
     610    149.14503    162898.78    72.241569    72.241569    36.042329          120    16943.267    17463.287   -35749.961    454.32576   -362.29477   -1543.9234    72.241569    62.563034    36.042329   -447.80256   -312086.97 
     620    148.07216    162896.78    72.241274    72.241275    36.042182          120    16945.173     17464.77   -35850.217    227.03986   -1028.6662   -1684.1676    72.241274    62.562779    36.042182   -480.09133   -312087.21 
     630    149.14894    162894.38    72.240918    72.240919    36.042005          120    16816.071    17578.889   -36122.442    435.51127   -1196.9814   -1789.2261    72.240918    62.562471    36.042005   -575.82739   -312091.38 
     640    147.88425    162891.48     72.24049    72.240491    36.041791          120    16628.421    17261.021   -35960.929    1050.5974   -774.74185   -1901.4337     72.24049      62.5621    36.041791   -690.49558   -312091.03 
     650    146.76755    162888.06    72.239984    72.239985    36.041538          120    17241.944    17187.229   -35294.485    850.36281   -641.38093   -1902.7562    72.239984    62.561662    36.041538   -288.43748   -312090.47 
     660    146.90457    162884.44    72.239449     72.23945    36.041272          120    17319.955    17578.562   -35298.056     574.2064   -893.51483   -2135.2502    72.239449    62.561199    36.041272   -133.17953   -312092.42 
     670    145.93813    162880.83    72.238915    72.238916    36.041005          120    17301.653    17651.224   -35306.741    671.36726   -494.16347    -2466.053    72.238915    62.560736    36.041005   -117.95478   -312092.49 
     680    145.56779    162877.18    72.238376    72.238377    36.040736          120    17070.748    16851.537    -35744.06    641.13081   -731.99594   -2391.8419    72.238376     62.56027    36.040736   -607.25838      -312093 
     690    146.88484    162873.09    72.237771    72.237772    36.040434          120    16560.488    16474.608   -35839.931    553.18548   -560.86063   -2141.8485    72.237771    62.559746    36.040434   -934.94495   -312096.78 
     700     145.5591    162868.24    72.237055    72.237055    36.040077          120    16367.346    16768.636   -35705.058    549.82428   -663.93623   -1734.1044    72.237055    62.559125    36.040077   -856.35865   -312095.39 
     710    146.07384    162862.72    72.236238    72.236239     36.03967          120    16757.391    17029.891   -35742.738    732.82824   -1237.3063   -1225.1591    72.236238    62.558418     36.03967   -651.81849   -312097.95 
     720    146.57077    162856.77    72.235359     72.23536    36.039231          120    16939.637    17337.541   -35121.785     935.3083   -828.27812   -1499.8513    72.235359    62.557657    36.039231   -281.53539   -312099.88 
     730     145.3703    162850.75    72.234468    72.234468    36.038786          120    16786.342    17633.174   -34997.307    718.26141   -886.75632   -2043.1061    72.234468    62.556885    36.038786   -192.59708   -312097.72 
     740    144.84236    162844.79    72.233587    72.233587    36.038347          120    17029.061    18094.105   -34813.989    616.24412   -979.26983   -2104.5491    72.233587    62.556122    36.038347    103.05906   -312097.08 
     750    144.82991    162839.15    72.232753    72.232754    36.037931          120    17329.168     18628.73   -34934.863    685.37192   -617.09516   -2074.4305    72.232753      62.5554    36.037931     341.0114   -312097.33 
     760    144.78488    162834.04    72.231998    72.231999    36.037554          120    17071.839    18459.037   -35061.914    636.85678   -485.59201   -2493.8488    72.231998    62.554746    36.037554    156.32066   -312097.23 
     770    144.63186    162829.26    72.231292    72.231292    36.037202          120    16613.973    18080.344   -35369.709    531.50955   -1030.1228   -2273.0825    72.231292    62.554134    36.037202   -225.13075   -312097.15 
     780    145.62721    162824.49    72.230586    72.230586     36.03685          120     17251.15    17829.614   -35345.675    454.91082   -1205.6464   -1436.3781    72.230586    62.553523     36.03685   -88.303427   -312099.18 
     790    146.35443    162819.82    72.229895    72.229896    36.036505          120    17934.756    18113.608   -35228.686    527.55468   -1167.7625   -916.70838    72.229895    62.552925    36.036505     273.2261   -312099.96 
     800    147.11876    162815.64    72.229277    72.229278    36.036197          120    18182.171    18725.589   -34328.226    854.06801   -1018.2172   -709.43754    72.229277     62.55239    36.036197    859.84485   -312100.62 
     810    146.41684    162812.45    72.228806    72.228806    36.035962          120    17913.614    18952.401   -33991.424    900.50734   -538.86694   -1373.8479    72.228806    62.551981    36.035962    958.19709   -312098.56 
     820    146.98236    162810.35    72.228495    72.228496    36.035807          120    17997.259    18412.816    -33766.98    863.45996   -529.83757   -1624.0604    72.228495    62.551712    36.035807    881.03164   -312098.89 
     830    146.11773    162809.23    72.228329     72.22833    36.035724          120    18068.526    18052.324   -34109.889    733.96599   -858.37396   -1795.9999    72.228329    62.551568    36.035724    670.32017   -312096.21 
     840    146.82896    162808.83     72.22827     72.22827    36.035694          120     18112.43    17688.245   -34251.467    442.78988   -622.73204    -1807.733     72.22827    62.551517    36.035694    516.40295   -312096.57 
     850    148.06636    162808.99    72.228294    72.228295    36.035706          120    18348.746    17564.078   -33898.065    422.49328   -987.79386   -2190.3662    72.228294    62.551538    36.035706    671.58647   -312097.34 
     860    146.78196    162809.83    72.228418    72.228418    36.035768          120    18381.527    17983.303   -33849.275    599.77133   -917.70005    -2122.455    72.228418    62.551645    36.035768    838.51827   -312093.76 
     870    147.56471    162811.46    72.228659     72.22866    36.035888          120    18264.247    18137.572   -34112.589    637.12241   -662.75512   -1552.5755    72.228659    62.551854    36.035888    763.07699    -312093.8 
     880    148.66544    162813.79    72.229004    72.229004     36.03606          120    17709.006    18290.988   -34204.782    715.04472    -739.7747   -1892.8066    72.229004    62.552153     36.03606    598.40415   -312094.38 
     890    149.99474    162816.69    72.229432    72.229433    36.036274          120     17591.62    18699.122   -33501.631    851.83043   -813.02315   -1314.5719    72.229432    62.552524    36.036274    929.70377   -312095.58 
     900    149.83645    162820.36    72.229975    72.229975    36.036545          120    17451.109    18901.517   -34163.487    597.22576   -1016.0651   -1382.7627    72.229975    62.552993    36.036545     729.7131   -312094.26 
     910    149.18446    162824.67    72.230612    72.230612    36.036862          120    17717.068    18566.389    -34068.84    604.64579   -1057.3555   -2040.0894    72.230612    62.553545    36.036862     738.2055   -312091.63 
     920    149.75962    162829.53    72.231331    72.231332    36.037222          120    17718.386    18158.217   -34256.261    289.31141   -1186.6885   -2421.3057    72.231331    62.554168    36.037222    540.11396   -312091.47 
     930    150.79308    162834.78    72.232107    72.232108    36.037609          120    17476.039     18354.79   -34512.348    79.362515    -950.3293   -2548.3995    72.232107     62.55484    36.037609    439.49386   -312092.24 
     940    151.61608    162840.29    72.232922    72.232923    36.038015          120    17649.187    18367.177   -34516.119    375.12058   -928.44108    -2429.512    72.232922    62.555546    36.038015    500.08179   -312091.85 
     950    152.37564    162846.11    72.233782    72.233783    36.038444          120    18051.374    18435.019   -34722.962    641.81566   -608.74402    -2205.503    72.233782    62.556291    36.038444    587.81006   -312091.62 
     960    153.14033    162852.34    72.234704    72.234705    36.038904          120    18275.707    18679.246     -34081.3    308.34741   -474.61781   -1886.5027    72.234704     62.55709    36.038904    957.88434    -312091.5 
     970    151.68193    162859.27    72.235729    72.235729    36.039415          120    18407.081     18224.34   -34196.748    75.677263   -537.98058   -2078.4852    72.235729    62.557977    36.039415    811.55738   -312087.23 
     980     151.9258    162866.75    72.236834    72.236834    36.039967          120    18029.528    18118.147   -34910.119    41.014123   -553.09945   -1791.1133    72.236834    62.558934    36.039967    412.51885   -312086.27 
     990    153.27411    162874.35    72.237958    72.237959    36.040528          120    17741.865    17739.229   -35779.524    305.31776   -464.02906   -1999.7273    72.237958    62.559908    36.040528   -99.476471    -312087.6 
    1000     153.4256     162881.6     72.23903     72.23903    36.041062          120    18061.193    16926.373   -35922.398    604.97136   -339.23315    -1991.008     72.23903    62.560836    36.041062   -311.61095   -312087.24 
    1010    152.92268    162888.32    72.240023    72.240024    36.041558          120    18214.143    17399.392   -35482.103    736.04067   -654.23797   -1721.5326    72.240023    62.561696    36.041558    43.810676    -312085.8 
    1020    152.92434    162894.88    72.240993    72.240993    36.042042          120    18848.691    18063.629   -34701.718    524.40035   -657.64412   -1981.3873    72.240993    62.562536    36.042042    736.86724   -312084.55 
    1030    153.82026    162901.89    72.242029    72.242029    36.042559          120    18748.174    18030.707   -34481.662    456.36127   -626.63267   -2145.2717    72.242029    62.563433    36.042559    765.73972   -312085.79 
    1040    154.23814    162909.35    72.243132    72.243132    36.043109          120    17643.943    17794.018   -35219.541    681.87754   -711.91028   -2279.8535    72.243132    62.564388    36.043109    72.806684   -312086.32 
    1050    152.89382    162916.67    72.244213    72.244214    36.043649          120    16436.819    17878.686     -35390.2    318.35613    -740.3264   -1956.6109    72.244213    62.565325    36.043649   -358.23174   -312083.76 
    1060    153.62976    162923.31    72.245196    72.245196    36.044139          120    15606.782    17158.142   -36084.114    360.03566   -1007.0356   -1761.1393    72.245196    62.566175    36.044139   -1106.3966   -312084.82 
    1070    153.38962    162928.65    72.245985    72.245986    36.044533          120    16117.007     16869.57   -36355.209    1023.7542    -1147.735   -1551.7921    72.245985    62.566859    36.044533   -1122.8774   -312084.31 
    1080    153.33318    162932.71    72.246585    72.246585    36.044832          120    16808.011    17264.029   -35913.393    870.17095   -567.53197   -1643.4809    72.246585    62.567378    36.044832   -613.78453   -312084.51 
    1090    153.33703    162935.98    72.247069    72.247069    36.045073          120    17113.805    17809.084   -35636.313    639.65505   -788.15293   -2302.0036    72.247069    62.567797    36.045073   -237.80775   -312084.42 
    1100    154.36071    162938.89    72.247499    72.247499    36.045288          120    16992.479    18005.267   -35091.816    562.83276   -1085.9898   -2514.2832    72.247499     62.56817    36.045288   -31.356746    -312086.8 
    1110    153.93084    162941.63    72.247903    72.247903    36.045489          120    16604.085    18302.082   -35546.657    795.10671   -664.82038   -2405.3814    72.247903     62.56852    36.045489   -213.49662   -312086.26 
    1120    154.44659    162944.07    72.248264    72.248265     36.04567          120    16761.747     18238.28   -35239.394    1049.2197   -771.63897   -1824.7624    72.248264    62.568833     36.04567   -79.788965   -312088.31 
    1130     153.6494    162946.34      72.2486      72.2486    36.045837          120    17270.236    17601.684   -34934.192    1204.8019   -772.05317   -2118.0368      72.2486    62.569123    36.045837   -20.757171   -312087.48 
    1140    153.38455    162948.47    72.248913    72.248914    36.045994          120    17412.884    16917.575   -35577.421    1098.3488   -837.43582   -1700.2458    72.248913    62.569395    36.045994   -415.65393   -312087.93 
    1150    151.52776    162950.16    72.249164    72.249164    36.046118          120    17519.338    17095.945   -35341.302     865.6949   -1088.0164   -1438.1026    72.249164    62.569612    36.046118   -242.00652   -312085.35 
    1160    152.07418    162951.54    72.249368    72.249369     36.04622          120    17644.134    17505.948    -35246.97    645.56062   -1150.0111   -1962.9542    72.249368    62.569789     36.04622   -32.296059   -312087.64 
    1170    151.91092    162952.83    72.249558    72.249558    36.046315          120    17632.277    17487.735   -35355.223    748.78633   -1379.8816   -1823.1953    72.249558    62.569953    36.046315   -78.403528   -312088.56 
    1180    152.88423    162953.95    72.249724    72.249725    36.046398          120    16951.581    17385.916   -35763.418     618.1006   -1611.5305      -1724.7    72.249724    62.570097    36.046398   -475.30706   -312092.15 
    1190    151.91962    162954.55    72.249813    72.249813    36.046442          120    16132.923    17022.689   -35741.475    444.60606   -1573.7424   -1367.1985    72.249813    62.570174    36.046442   -861.95446   -312091.74 
    1200    150.30947    162954.28    72.249772    72.249773    36.046422          120    16115.225    17019.465   -35941.779    728.41517   -1544.6605    -1426.879    72.249772    62.570139    36.046422   -935.69637   -312090.08 
    1210    150.02192    162953.07    72.249594    72.249594    36.046333          120    16107.511    17114.353    -35610.98    1227.8171   -1493.8253   -1673.4763    72.249594    62.569984    36.046333   -796.37214    -312091.3 
    1220    150.21661    162951.11    72.249305    72.249305    36.046189          120    16649.444     16949.33   -34893.656    918.41226   -1199.9056   -2226.1526    72.249305    62.569734    36.046189   -431.62738   -312093.53 
    1230    150.05176    162948.75    72.248956    72.248957    36.046015          120    16704.084    17328.607   -35054.952    787.36089   -920.78734   -2099.4723    72.248956    62.569432    36.046015    -340.7536   -312094.67 
    1240    149.98356    162946.13    72.248568    72.248568    36.045821          120    16962.415    17257.321   -35157.344     814.6797   -898.96786   -2217.5987    72.248568    62.569096    36.045821   -312.53621   -312095.83 
    1250    150.37172    162943.25    72.248142    72.248143    36.045609          120    16572.706    17347.188   -35294.587    899.39441   -1344.0535   -2299.4114    72.248142    62.568727    36.045609   -458.23096   -312098.03 
    1260    149.28319    162940.03    72.247667    72.247667    36.045371          120    16831.477    17899.266   -35708.424      948.261   -1154.6028    -2199.327    72.247667    62.568315    36.045371   -325.89364   -312097.16 
    1270    147.85312    162936.58    72.247157    72.247158    36.045117          120     17063.66    18115.869    -35724.85    764.86726   -1023.8581   -1906.9696    72.247157    62.567874    36.045117   -181.77366   -312096.18 
    1280    148.64565    162933.04    72.246633    72.246634    36.044856          120    17032.669    17670.348   -35611.935    829.58807   -1013.1562   -1599.1888    72.246633    62.567421    36.044856   -302.97253   -312099.06 
    1290    146.80385    162929.34    72.246087    72.246088    36.044583          120    17181.902    17613.566   -35132.263     670.4899   -1163.4304   -1126.8895    72.246087    62.566947    36.044583   -112.26471   -312096.76 
    1300    148.47173    162925.64    72.245539     72.24554     36.04431          120    17138.476    17511.013   -34738.131    605.31095   -1356.8577    -873.7919    72.245539    62.566473     36.04431   -29.547441   -312101.34 
    1310    147.10859       162922    72.245002    72.245002    36.044042          120    16989.278    17133.429   -35059.598    584.43899   -650.50313   -1078.1048    72.245002    62.566008    36.044042   -312.29696      -312100 
    1320     147.5307    162918.18    72.244436    72.244437     36.04376          120    16746.257     17001.76   -35245.394    311.42017   -615.56737   -1718.1121    72.244436    62.565518     36.04376    -499.1256   -312101.91 
    1330    145.87536    162914.03    72.243823    72.243824    36.043454          120     17468.99    16972.695   -34625.789    355.41825   -347.78707   -1984.9408    72.243823    62.564987    36.043454   -61.368142   -312099.99 
    1340    146.73702    162909.92    72.243216    72.243216    36.043151          120    17309.317    17642.327   -34811.965    751.22369    91.100613   -2194.7031    72.243216    62.564461    36.043151    46.559868   -312102.63 
    1350    147.32602    162905.95     72.24263     72.24263    36.042858          120    17106.981    17428.866   -35245.961    861.26413   -114.42094   -1930.0477     72.24263    62.563953    36.042858   -236.70477   -312104.16 
    1360    146.89459    162901.88    72.242027    72.242028    36.042558          120    17005.579    16838.718   -35200.871    649.80999   -753.15605   -2042.5235    72.242027    62.563432    36.042558   -452.19133   -312103.66 
    1370       147.29    162897.52    72.241383    72.241384    36.042236          120    16955.486    16930.921    -34683.99    790.00805   -749.73106   -2070.0858    72.241383    62.562874    36.042236   -265.86108   -312104.41 
    1380    146.07101    162893.05    72.240723    72.240723    36.041907          120    16746.584    17695.255   -34334.057    659.72315   -684.62549   -2026.9796    72.240723    62.562302    36.041907    35.927196    -312102.2 
    1390    146.01953    162888.76    72.240087    72.240088     36.04159          120    17008.459     18283.75   -34790.049    701.32186   -1272.0436   -1891.9888    72.240087    62.561751     36.04159    167.38675   -312101.87 
    1400    145.59319    162884.77    72.239498    72.239498    36.041296          120    17391.694    18466.636   -34950.536    798.69042   -1073.9155   -1908.0825    72.239498    62.561241    36.041296    302.59828   -312101.07 
    1410    146.00171     162881.2     72.23897    72.238971    36.041033          120    17142.999    18871.972   -34924.649    661.14882   -1121.3157   -2171.1044     72.23897    62.560784    36.041033    363.44068   -312101.87 
    1420    146.08228    162878.11    72.238513    72.238514    36.040805          120    17003.631    18480.563   -34481.086     1032.496   -890.49157   -1958.2927    72.238513    62.560388    36.040805    334.36935   -312102.09 
    1430    145.98486    162875.47    72.238123    72.238123     36.04061          120    17056.225    18396.346   -34531.708    848.97865    -161.8396    -1500.842    72.238123     62.56005     36.04061    306.95445   -312101.46 
    1440    145.80979    162873.23    72.237792    72.237793    36.040445          120    17010.873    18420.686   -34625.013    625.93336   -250.65783   -1392.5873    72.237792    62.559764    36.040445    268.84835   -312100.48 
    1450     147.6977    162871.33    72.237512    72.237512    36.040305          120    17112.181    17888.344   -34657.777    439.19439    -225.4936    -1308.475    72.237512    62.559521    36.040305    114.24906   -312103.39 
    1460    147.55006    162869.66    72.237265    72.237265    36.040182          120    17653.526    17908.919   -34252.617    125.73008   -19.622098   -1456.4551    72.237265    62.559307    36.040182    436.60917   -312102.02 
    1470    146.84466    162868.44    72.237084    72.237084    36.040091          120    17498.808    18281.805   -34642.072    157.66186   -764.70875   -1573.1678    72.237084     62.55915    36.040091    379.51373   -312099.48 
    1480    146.65295    162867.63    72.236965    72.236965    36.040032          120    17535.416    18339.076   -35177.922    266.25424   -1518.3101   -1916.6463    72.236965    62.559047    36.040032    232.19013    -312098.2 
    1490    147.05121    162867.09    72.236884    72.236884    36.039992          120    17288.955     18219.36   -35220.035    844.42129   -1499.4984   -2639.4429    72.236884    62.558977    36.039992    96.092975   -312097.97 
    1500    148.26019    162866.65     72.23682    72.236821     36.03996          120    17165.695    18482.642   -35559.235    592.40736   -1687.9354   -2222.6396     72.23682    62.558922     36.03996    29.700428   -312099.17 
    1510    148.56567     162866.3    72.236768    72.236769    36.039934          120    17788.047    18790.541   -35450.384    188.83798   -1352.1012   -1505.1109    72.236768    62.558877    36.039934    376.06794    -312098.1 
    1520    148.66814    162866.37    72.236778    72.236779    36.039939          120    18461.599    18981.454   -34515.717    211.26795   -926.75819   -1161.0319    72.236778    62.558886    36.039939     975.7788   -312096.81 
    1530     150.5802    162867.39    72.236928    72.236929    36.040014          120    18128.811    19262.685   -34174.863    515.17542   -868.97919   -1224.5968    72.236928    62.559016    36.040014    1072.2113   -312098.98 
    1540    150.58844    162869.41    72.237227    72.237228    36.040163          120    17707.313    18896.581   -34542.243    539.97461   -692.04978   -1566.3476    72.237227    62.559275    36.040163    687.21695   -312097.72 
    1550     150.5767    162872.08    72.237622    72.237622     36.04036          120    17729.991    18663.838   -35092.239    659.55443   -825.71085   -1569.4764    72.237622    62.559616     36.04036    433.86348   -312096.47 
    1560    150.73495    162875.14    72.238074    72.238075    36.040586          120     17760.28    19080.001   -35071.575    922.25778   -668.93024   -1578.5172    72.238074    62.560008    36.040586    589.56889   -312095.13 
    1570    149.77163    162878.72    72.238603    72.238604     36.04085          120    17960.951    19308.757   -34593.823    992.69882    -734.4162   -1444.7115    72.238603    62.560466     36.04085    891.96195   -312091.77 
    1580    151.43819    162883.08    72.239248    72.239248    36.041171          120    18498.814    19027.347   -34391.159    866.22909   -1103.8539   -1671.5264    72.239248    62.561024    36.041171    1045.0006   -312093.64 
    1590    152.78106    162888.33    72.240024    72.240024    36.041558          120    18231.776    18834.643   -34258.366    765.49959   -1631.1822   -2317.5187    72.240024    62.561696    36.041558    936.01761   -312095.12 
    1600    152.56557     162894.4    72.240922    72.240922    36.042006          120    18045.858    18753.472   -33782.315    479.15661   -1890.4531   -2376.0938    72.240922    62.562474    36.042006    1005.6716    -312093.6 
    1610    152.82373    162901.28    72.241939     72.24194    36.042514          120    18141.457    18331.539   -34118.171    754.63997   -1966.6747   -2059.3101    72.241939    62.563355    36.042514    784.94162   -312093.32 
    1620     152.4636    162908.74    72.243041    72.243042    36.043064          120    17652.156    18602.665   -35033.333    821.63455   -1301.4711   -2757.5829    72.243041     62.56431    36.043064    407.16277   -312091.48 
    1630    154.21206     162916.4    72.244173    72.244174    36.043629          120    17223.331    18402.818   -35199.784    414.40514   -901.08868   -2791.7376    72.244173     62.56529    36.043629    142.12197   -312093.88 
    1640    153.41842    162923.95    72.245291    72.245291    36.044186          120    17212.981     17966.19   -35596.917    538.07297   -867.41494   -2026.0765    72.245291    62.566258    36.044186   -139.24872   -312091.37 
    1650     152.4514    162931.16    72.246356    72.246357    36.044718          120    16893.241    17354.717   -34810.935   -60.407021   -734.36943   -1679.9659    72.246356     62.56718    36.044718   -187.65899   -312089.11 
    1660    153.26051    162937.95    72.247359    72.247359    36.045218          120    17268.779    17143.417   -34928.443   -214.63668   -331.17071   -1421.6065    72.247359    62.568048    36.045218   -172.08218   -312090.48 
    1670    152.98659     162944.4    72.248312    72.248313    36.045693          120    17507.339    18137.212    -34507.09    -192.3971   -487.19348    -1155.114    72.248312    62.568874    36.045693    379.15387    -312089.5 
    1680    153.89474       162951    72.249288    72.249288     36.04618          120    17618.329    17960.011   -34049.435    287.08354   -891.38339   -1460.6253    72.249288    62.569719     36.04618    509.63483   -312091.16 
    1690    153.32117    162957.88    72.250305    72.250306    36.046688          120    17456.275    17915.712   -34716.044    1158.1883   -985.08232   -1465.1012    72.250305      62.5706    36.046688    218.64771   -312090.15 
    1700     153.4425    162964.79    72.251327    72.251327    36.047197          120    17179.198    18101.386   -35356.014    1413.7923    -1107.222   -1374.9523    72.251327    62.571485    36.047197   -25.143279   -312089.74 
    1710    153.78808    162971.45     72.25231    72.252311    36.047688          120    16614.176    17939.882   -35700.964    1176.9217    -1141.838    -1886.186     72.25231    62.572337    36.047688   -382.30154   -312090.58 
    1720    153.13916    162977.54    72.253209     72.25321    36.048137          120     16423.29    17512.807   -35635.117    1006.5841   -1129.0905   -1791.0449    72.253209    62.573116    36.048137   -566.34004   -312089.58 
    1730    152.75535    162982.86    72.253996    72.253997    36.048529          120    16903.971    17240.365    -35883.74    516.66101   -1239.6659   -2030.9055    72.253996    62.573797    36.048529   -579.80104   -312089.66 
    1740    152.99673    162987.41    72.254669    72.254669    36.048865          120    16550.348    17318.274   -35983.182    467.50291    -538.2345   -2389.8516    72.254669    62.574379    36.048865   -704.85315   -312090.33 
    1750    152.58311    162991.08    72.255211    72.255211    36.049135          120    16510.833    16957.126    -36530.25     601.2786   -339.33472   -2487.1349    72.255211    62.574849    36.049135   -1020.7635   -312089.95 
    1760    153.18358    162993.64    72.255589     72.25559    36.049324          120    16632.611    17110.785   -36376.641    343.01556   -205.36384   -2152.2271    72.255589    62.575177    36.049324   -877.74818   -312091.81 
    1770    152.61489    162995.23    72.255824    72.255824    36.049441          120     16645.48    17282.826   -35777.581    658.32091    -651.2253   -1861.3128    72.255824     62.57538    36.049441   -616.42521   -312091.95 
    1780    152.38759    162996.13    72.255957    72.255958    36.049508          120    16676.132    17226.579    -35167.43     968.8056   -540.39195   -1941.4244    72.255957    62.575495    36.049508   -421.57291   -312092.64 
    1790    151.44865    162996.54    72.256018    72.256019    36.049538          120    16537.175    17188.256    -35480.61    593.81926   -768.19823   -2193.5186    72.256018    62.575548    36.049538    -585.0596   -312091.65 
    1800    151.76478    162996.38    72.255994    72.255995    36.049526          120    16469.113    17223.882   -35226.679    578.71152   -1084.3088    -1935.977    72.255994    62.575527    36.049526   -511.22804   -312092.97 
    1810    151.70038    162995.69    72.255893    72.255893    36.049476          120    16091.305    17382.359   -35012.943    632.20532    -918.2468   -2008.6786    72.255893    62.575439    36.049476   -513.09272   -312094.34 
    1820    150.92142     162994.5    72.255717    72.255717    36.049388          120    16246.411    17290.727   -35368.285    778.66578   -893.61251   -2504.6535    72.255717    62.575287    36.049388   -610.38236   -312094.08 
    1830    149.88614    162992.71    72.255453    72.255453    36.049256          120    16557.724    17444.049   -36252.581    756.90611   -932.60731   -2171.7907    72.255453    62.575058    36.049256   -750.26928    -312093.1 
    1840    150.44913    162990.23    72.255085    72.255085    36.049072          120    16316.668    17452.483    -36060.03    992.74563   -1205.6986   -2429.9657    72.255085     62.57474    36.049072   -763.62627   -312095.86 
    1850    149.71053    162987.03    72.254612    72.254613    36.048837          120    16514.608      17137.2   -36019.335    905.25241   -1131.6094   -2338.6863    72.254612     62.57433    36.048837   -789.17578   -312095.65 
    1860    150.99093    162983.12    72.254034    72.254035    36.048548          120    16307.653    17335.714   -35822.166     919.8203   -1235.8774    -2326.069    72.254034     62.57383    36.048548   -726.26623   -312099.69 
    1870    150.34828    162978.61    72.253368    72.253369    36.048216          120    16506.049    18103.711   -35660.136    583.53159   -1153.8207   -1793.7207    72.253368    62.573253    36.048216   -350.12568   -312099.59 
    1880    149.52978    162973.89    72.252671    72.252671    36.047868          120    17272.159    18296.701   -35514.663    539.27545   -1413.8381   -1330.0842    72.252671    62.572649    36.047868    18.065788   -312098.82 
    1890    147.98373     162969.3    72.251993    72.251993     36.04753          120    17459.233     17766.56   -35238.258     916.7234   -1819.2002   -1365.9483    72.251993    62.572062     36.04753   -4.1547687   -312097.31 
    1900    147.78618    162964.82     72.25133    72.251331    36.047199          120    17144.234     17457.63   -35313.554    970.55753   -1605.6742   -1282.2614     72.25133    62.571488    36.047199   -237.23016   -312097.72 
    1910    149.05348    162960.28    72.250659     72.25066    36.046864          120    17147.297    17781.601   -34944.728    805.02288   -1397.9072   -1006.3479    72.250659    62.570907    36.046864   -5.2768962   -312101.68 
    1920    148.65044    162955.84    72.250003    72.250004    36.046537          120     17212.03    17886.236   -34945.149    570.25295   -823.12455    -978.1568    72.250003    62.570339    36.046537    51.038871   -312102.22 
    1930    148.45697    162951.56     72.24937    72.249371    36.046222          120    16561.104    18210.633    -35198.94    56.152846   -647.13387   -931.18424     72.24937    62.569791    36.046222     -142.401   -312103.15 
    1940    148.59106    162947.26    72.248736    72.248736    36.045905          120    16761.444    17775.078   -35396.972    195.91506   -1211.9585   -1181.9857    72.248736    62.569241    36.045905    -286.8166   -312104.24 
    1950    147.91037    162942.82    72.248079     72.24808    36.045577          120    17506.362    17203.705   -35652.233    571.56951   -1073.4462   -1880.0637    72.248079    62.568673    36.045577   -314.05554   -312103.85 
    1960    147.73293     162938.2    72.247395    72.247396    36.045236          120     17256.27    17249.302   -35304.463     789.7439    -799.8524   -1903.9002    72.247395    62.568081    36.045236   -266.29704   -312104.19 
    1970    147.08309    162933.46    72.246696    72.246696    36.044887          120    17012.118    17691.934   -34473.294    931.25524   -1041.6448   -2139.6206    72.246696    62.567475    36.044887    76.919351   -312103.87 
    1980    146.43254     162928.9    72.246021    72.246022    36.044551          120    16701.852    17677.319   -34270.951     718.6113   -730.13974   -1804.9123    72.246021     62.56689    36.044551    36.073199   -312103.52 
    1990    147.01252    162924.53    72.245375    72.245375    36.044228          120    16304.739    18273.631   -34519.747    868.58894   -537.59517   -1762.9938    72.245375    62.566331    36.044228    19.541128   -312105.28 
    2000    146.94388    162920.32    72.244753    72.244753    36.043918          120    16211.786    18597.926   -34319.956    598.23693   -877.97225   -1569.8816    72.244753    62.565792    36.043918    163.25183   -312105.61 
    2010    147.14907     162916.4    72.244174    72.244175    36.043629          120    16724.988    19138.736   -34678.627    429.75925    -1152.729    -1212.069    72.244174    62.565291    36.043629    395.03235   -312105.49 
    2020    145.53697    162912.98    72.243668    72.243669    36.043377          120    17124.998    19184.395   -35245.947    265.68256   -1079.9776   -1408.4626    72.243668    62.564853    36.043377    354.48204   -312102.63 
    2030    146.20213    162909.99    72.243226    72.243227    36.043156          120    17689.907    18148.251   -35571.733    271.38576   -1179.6576   -1644.1979    72.243226     62.56447    36.043156    88.808284   -312103.78 
    2040    148.04719    162907.21    72.242815    72.242816    36.042951          120    17693.922    18028.303   -35365.128    84.725699   -1282.9866   -1491.5689    72.242815    62.564114    36.042951    119.03227   -312107.07 
    2050     146.1787    162904.66    72.242438    72.242439    36.042763          120    17964.351    18424.354   -34921.659    349.65554   -1285.5107   -1654.0119    72.242438    62.563787    36.042763    489.01532   -312103.48 
    2060    146.51082    162902.68    72.242146    72.242146    36.042617          120    18249.618    18838.422    -34474.44    553.11606   -1813.9143   -1764.2223    72.242146    62.563534    36.042617    871.19991   -312103.35 
    2070     147.8973    162901.62     72.24199     72.24199    36.042539          120    18260.754    18694.744   -34038.672    528.74456   -1537.2953   -1972.2672     72.24199    62.563399    36.042539    972.27505   -312105.38 
    2080     148.4551    162901.55    72.241979    72.241979    36.042534          120    17924.071    18299.646   -34251.388    311.89718   -1359.1544   -1723.6362    72.241979    62.563389    36.042534    657.44304   -312106.02 
    2090    147.42104    162902.18    72.242072    72.242072     36.04258          120    17997.596    18258.419   -34891.727     36.00566   -891.18746   -1509.5939    72.242072     62.56347     36.04258    454.76269    -312103.1 
    2100    148.64972     162903.2    72.242223    72.242224    36.042656          120    17532.321    17741.809   -35384.799    205.34592   -753.87373   -1247.7526    72.242223    62.563601    36.042656   -36.889544   -312104.66 
    2110    149.36318    162904.28    72.242382    72.242383    36.042735          120    17940.431    17945.897   -34520.661    213.61821   -765.11795   -1236.0114    72.242382    62.563739    36.042735    455.22227    -312104.9 
    2120    148.20571    162905.74    72.242599    72.242599    36.042843          120    17685.344     18189.65   -34329.292    58.387297   -657.40461   -1341.4914    72.242599    62.563926    36.042843     515.2341   -312101.51 
    2130    148.57793    162907.67    72.242884    72.242884    36.042985          120    17385.316    17962.889   -34539.001     443.0638   -923.71471   -1363.8516    72.242884    62.564173    36.042985    269.73454   -312101.19 
    2140    148.34016    162909.82    72.243202    72.243202    36.043144          120    17017.126    18209.393   -34905.427    884.14983   -823.11108   -1474.5654    72.243202    62.564449    36.043144    107.03066   -312100.08 
    2150    148.52162    162912.04     72.24353     72.24353    36.043308          120    16830.985    18638.539   -35150.728    755.67886   -816.91229   -1544.5317     72.24353    62.564733    36.043308    106.26539   -312099.46 
    2160    149.64498     162914.3    72.243863    72.243863    36.043474          120    17169.989    18098.525   -35107.033    530.34567   -1065.2382    -1715.497    72.243863    62.565021    36.043474    53.826853   -312100.68 
    2170    150.25984    162916.55    72.244196    72.244197     36.04364          120    17677.639    18159.953   -35350.542    442.01933   -1306.9148   -1437.9227    72.244196     62.56531     36.04364    162.35005   -312100.39 
    2180    150.18896    162918.93    72.244547    72.244548    36.043815          120    17870.431    18660.937    -35112.88    207.95605    -1382.309   -1238.8521    72.244547    62.565614    36.043815    472.82901   -312099.14 
    2190    149.89899    162921.66    72.244951    72.244952    36.044017          120    17882.806    18305.653   -35425.235    361.86101   -878.67818   -1906.7592    72.244951    62.565964    36.044017    254.40766   -312097.44 
    2200    152.49876    162924.57    72.245381    72.245382    36.044231          120    17609.367    17611.904   -35407.284    361.46926    -758.3084   -2172.7422    72.245381    62.566336    36.044231    -62.00399   -312101.34 
    2210    150.28495    162927.38    72.245797    72.245798    36.044439          120    17606.563    18080.794   -35420.829    603.76135   -725.29512    -2291.944    72.245797    62.566696    36.044439    88.842588   -312095.88 
    2220    150.81597     162930.2    72.246214    72.246215    36.044647          120     17921.67    18370.184   -35763.473    765.87287   -1017.0359   -2454.6144    72.246214    62.567057    36.044647    176.12731   -312095.95 
    2230    151.55752    162933.09     72.24664    72.246641    36.044859          120    17156.166    18068.352   -35332.146    755.30551    -1468.513    -2029.585     72.24664    62.567426    36.044859   -35.875618   -312096.19 
    2240    151.85315    162935.89    72.247055    72.247055    36.045066          120    16938.147    17707.328   -34543.382    270.18009   -1880.8632    -2302.472    72.247055    62.567785    36.045066    34.031092   -312096.24 
    2250    151.89249    162938.59    72.247454    72.247454    36.045265          120    16868.012    17178.404   -35264.526    266.58136   -1617.5337    -2480.988    72.247454    62.568131    36.045265   -406.03654   -312095.34 
    2260    151.71308    162940.86    72.247789    72.247789    36.045432          120    16857.638    17279.946   -35288.393    176.72292   -1225.3783   -1815.9414    72.247789    62.568421    36.045432   -383.60292   -312094.13 
[...]
   99200    149.76699    163196.18    72.285505    72.285506     36.06425          120     17521.43    16945.322   -35434.703    1883.3569   -1103.7388    -3114.284    72.285505    62.601085     36.06425   -322.65004   -312134.82 
   99210    150.54873    163202.96    72.286506    72.286507    36.064749          120    17887.278    17077.704   -35301.174    1471.4008   -1175.8543   -2924.7015    72.286506    62.601951    36.064749     -112.064    -312135.9 
   99220    149.67973    163209.64    72.287493    72.287493    36.065241          120     18238.45    17530.197   -34990.647    1748.6283   -987.76495     -2760.24    72.287493    62.602806    36.065241    259.33323   -312133.72 
   99230     150.5204    163216.55    72.288513    72.288514     36.06575          120     18244.67    17388.034   -34746.099    2074.4029   -993.45623   -2532.5158    72.288513    62.603689     36.06575    295.53499   -312135.21 
   99240    150.87118    163223.76    72.289577    72.289577    36.066281          120    17704.799    17788.128   -34915.936    2187.7871   -1449.2285    -2877.916    72.289577    62.604611    36.066281    192.33023   -312135.67 
   99250    150.58003    163231.12    72.290664    72.290664    36.066823          120    17469.014    17452.485   -35495.627    2353.7613   -2056.5505   -3082.5599    72.290664    62.605552    36.066823   -191.37606   -312135.33 
   99260    150.58879    163238.28    72.291721    72.291722    36.067351          120    16868.315    17267.125   -35596.811    1888.1186   -1932.3044   -3294.0952    72.291721    62.606468    36.067351   -487.12377   -312135.06 
   99270     149.9383    163244.94    72.292704    72.292705    36.067841          120    16800.144    17007.607   -35871.759    1508.2376   -1845.2935   -3012.7376    72.292704    62.607319    36.067841    -688.0025   -312133.86 
   99280    149.83831    163250.91    72.293586    72.293586    36.068281          120    16989.477    16818.386   -35779.868    1525.2603   -1643.3153   -3350.8843    72.293586    62.608082    36.068281   -657.33519   -312133.76 
   99290    151.16679    163256.23    72.294371    72.294372    36.068673          120    17218.431    17119.767   -35459.639    1480.4696    -892.8644   -3347.7979    72.294371    62.608763    36.068673   -373.81373   -312136.08 
   99300     151.0804    163261.17      72.2951      72.2951    36.069036          120    16917.477    17398.383   -34812.101    1007.2663   -1040.4958    -3502.628      72.2951    62.609394    36.069036   -165.41389   -312135.22 
   99310    150.79476    163265.83    72.295788    72.295789     36.06938          120    16819.531    16750.577   -35994.001    1220.4138   -1456.3034   -3347.0111    72.295788     62.60999     36.06938   -807.96414   -312134.93 
   99320    149.65483    163269.72    72.296362    72.296362    36.069666          120     16436.81    16942.468   -36219.958    1364.9222   -1002.7929   -2824.6379    72.296362    62.610486    36.069666   -946.89328   -312132.88 
   99330    150.24877    163272.63    72.296792    72.296792    36.069881          120     16110.26    17260.679   -35844.356    1620.0392   -630.59013   -3063.6116    72.296792    62.610859    36.069881   -824.47228   -312133.93 
   99340    149.43425    163274.68    72.297094    72.297095    36.070032          120    16794.693    16750.235   -35728.368    1427.7091   -695.61299   -2954.8651    72.297094    62.611121    36.070032   -727.81329   -312132.57 
   99350      151.039    163275.96    72.297284    72.297284    36.070126          120    17077.348    17229.883   -36189.234     1446.079   -1035.0564   -2519.3492    72.297284    62.611285    36.070126   -627.33447   -312135.72 
   99360    150.64419    163276.62     72.29738    72.297381    36.070174          120    17445.958    17693.066   -36211.626    1719.1708   -1283.9887   -2951.5473     72.29738    62.611368    36.070174   -357.53404   -312134.81 
   99370    151.39591    163276.89     72.29742    72.297421    36.070194          120    17444.988     17629.23   -35901.568    1794.9534   -1903.5079   -3102.3367     72.29742    62.611403    36.070194   -275.78328   -312136.27 
   99380    150.40813    163276.84    72.297413    72.297414    36.070191          120     16944.39    17236.864   -35716.913    1688.4397   -1392.1548   -3297.9051    72.297413    62.611397    36.070191   -511.88611   -312134.03 
   99390    150.31527    163276.28     72.29733    72.297331    36.070149          120     17188.34    16959.952    -35602.12    1303.7863   -1053.6313   -3423.0193     72.29733    62.611325    36.070149   -484.60944   -312134.32 
   99400     150.2791    163275.26     72.29718     72.29718    36.070074          120    18082.349    17282.153   -35191.109    1389.6092   -1430.3739    -2846.714     72.29718    62.611195    36.070074    57.797592   -312134.62 
   99410    151.13362    163274.26    72.297033    72.297033    36.070001          120     17992.52    17656.792   -34768.737    1241.1803   -1798.2986   -2593.1527    72.297033    62.611068    36.070001    293.52514   -312136.69 
   99420     149.4627    163273.58    72.296931    72.296932     36.06995          120    18445.507    17712.917   -34647.601    1688.8375   -1789.5606   -2617.1456    72.296931     62.61098     36.06995    503.60799    -312133.7 
   99430     150.4096    163273.39    72.296904    72.296905    36.069937          120    18905.437    18076.813   -34879.695     1611.785   -1235.9593   -2599.7157    72.296904    62.610956    36.069937    700.85168   -312135.36 
   99440    149.97128    163273.91     72.29698    72.296981    36.069975          120    18905.073    17673.813    -35025.39    1827.1315   -1240.4084   -2966.0493     72.29698    62.611022    36.069975    517.83203   -312134.96 
   99450    150.76817    163274.93    72.297132    72.297132     36.07005          120    17961.051    17146.518   -35310.322    1478.2438   -1462.7335   -2790.7047    72.297132    62.611153     36.07005   -67.584389   -312136.81 
   99460    148.66377    163275.91    72.297275    72.297276    36.070122          120    17509.439    17228.613   -36113.148    1378.1298   -1396.3597   -2547.2739    72.297275    62.611278    36.070122    -458.3652   -312133.04 
   99470    150.44291    163276.45    72.297355    72.297356    36.070162          120    17667.422    17820.496     -36487.5     1744.203   -992.70881   -3201.9244    72.297355    62.611347    36.070162   -333.19414   -312136.58 
   99480    150.40821    163276.65    72.297384    72.297385    36.070176          120    17754.578    17645.636   -36398.667    1765.7392   -793.25628   -3470.7538    72.297384    62.611372    36.070176   -332.81781   -312136.84 
   99490     148.3138    163276.46    72.297357    72.297358    36.070163          120    17122.746      16943.4    -36552.52    1572.2401   -1246.1748   -3222.0688    72.297357    62.611349    36.070163    -828.7912    -312133.2 
   99500     150.1222    163275.46     72.29721     72.29721    36.070089          120    17364.196    16368.374   -36204.636    1728.4317    -1413.095   -3167.6903     72.29721    62.611221    36.070089     -824.022   -312137.02 
   99510      148.216    163273.62    72.296938    72.296938    36.069954          120    17340.697    16992.023   -36026.005    1823.1076   -1001.6511   -3333.2463    72.296938    62.610985    36.069954   -564.42842   -312133.94 
   99520    150.60967    163271.17    72.296577    72.296577    36.069773          120    16951.988    17075.225   -35300.406    1762.6086   -1530.7444   -2911.2482    72.296577    62.610673    36.069773   -424.39777   -312139.06 
   99530    149.36224    163268.32    72.296155    72.296156    36.069563          120    17353.662    17345.708   -34913.946    1569.7389   -1277.8673   -2635.0822    72.296155    62.610308    36.069563   -71.525418   -312137.13 
   99540    148.66842    163265.34    72.295715    72.295716    36.069343          120    17117.786    17902.278   -35616.572    1161.1351   -1110.8728   -3078.3886    72.295715    62.609926    36.069343     -198.836   -312136.77 
   99550    149.03423    163262.14    72.295243    72.295244    36.069108          120    16873.071    18057.259    -35977.55    1399.2551   -1138.4397   -2834.2202    72.295243    62.609518    36.069108   -349.07337   -312137.48 
   99560    149.35367    163258.58    72.294717    72.294718    36.068846          120    17074.521    17492.428   -35636.297    1439.0071   -1251.5037   -2436.3567    72.294717    62.609063    36.068846   -356.44915   -312138.95 
   99570    147.86629    163254.66     72.29414     72.29414    36.068558          120    17592.383    17212.214    -35431.14    1503.7177    -1297.568   -2871.1306     72.29414    62.608562    36.068558   -208.84747   -312135.97 
   99580    148.89589    163250.54    72.293531    72.293532    36.068254          120    17898.789    17650.429   -35282.638     1514.042   -1187.5549   -2927.1678    72.293531    62.608035    36.068254    88.859683   -312138.33 
   99590    148.69972    163246.49    72.292932    72.292933    36.067955          120    17693.335     18020.61   -35167.526    1329.1849    -1240.387   -3011.8429    72.292932    62.607517    36.067955    182.13997    -312138.2 
   99600    148.25413    163242.58    72.292356    72.292357    36.067668          120    17261.951    17631.818   -34965.839    1212.2804   -1673.5836   -2674.5274    72.292356    62.607018    36.067668   -24.023405   -312137.55 
   99610    148.46616     163238.7    72.291783    72.291784    36.067382          120     17746.38    17793.493   -35185.298    1289.2856   -1439.1818   -2879.6098    72.291783    62.606522    36.067382    118.19168   -312138.13 
   99620    149.58267    163234.87    72.291218    72.291218      36.0671          120    17625.696    17684.348    -36445.52    1332.9838   -1761.6373   -2714.5392    72.291218    62.606032      36.0671   -378.49176   -312140.13 
   99630    148.52885    163230.69    72.290601    72.290602    36.066792          120    17879.373    16838.138   -36394.983    1485.9756   -1562.6485   -3104.5974    72.290601    62.605498    36.066792   -559.15701   -312138.55 
   99640    148.11823    163225.98    72.289905    72.289906    36.066445          120    17894.339    17094.404   -36075.113    1654.8424   -1480.2597   -2720.4758    72.289905    62.604895    36.066445   -362.12334   -312137.74 
   99650    148.87623     163220.9    72.289155    72.289156    36.066071          120    17884.727    17523.788    -35753.46    1540.9355   -1104.7298   -2575.0783    72.289155    62.604246    36.066071   -114.98142   -312139.11 
   99660    149.25627     163215.7    72.288388    72.288388    36.065688          120    17709.061    17811.128    -35325.49    1640.9816   -500.73174    -3105.803    72.288388    62.603581    36.065688    64.899651   -312139.57 
   99670    147.82335    163210.54    72.287626    72.287627    36.065308          120     17632.46    17637.593   -34997.913    1828.3392   -732.39914   -3153.1706    72.287626    62.602921    36.065308     90.71315   -312136.61 
   99680     148.0733    163205.47    72.286877    72.286878    36.064934          120    17837.668    17023.522    -34775.08    1679.9047   -1173.9219   -3030.3152    72.286877    62.602273    36.064934    28.703392    -312136.8 
   99690    150.04264    163200.43    72.286134    72.286134    36.064563          120    18426.178    16905.557   -35311.269    1551.6147   -1596.4329   -3083.9177    72.286134    62.601629    36.064563    6.8219206   -312140.26 
   99700    148.74221    163195.47    72.285401    72.285402    36.064198          120    18836.803    17101.968   -34822.735    1736.9915   -1385.8898    -3136.127    72.285401    62.600994    36.064198    372.01198   -312137.16 
   99710    149.26388    163190.82    72.284714    72.284715    36.063855          120    18151.762    17393.313   -35101.302    2107.9758    -960.0971   -3138.6411    72.284714      62.6004    36.063855    147.92441   -312137.49 
   99720    148.34767     163186.4    72.284061    72.284062    36.063529          120    17923.884    17858.608   -34131.805    1796.4135   -1068.5579   -2972.9857    72.284061    62.599834    36.063529    550.22919   -312134.87 
   99730    149.87339    163182.52    72.283488    72.283489    36.063243          120    18276.411    18645.115   -34457.561     1642.303   -1347.2572   -2980.4451    72.283488    62.599338    36.063243    821.32172   -312137.06 
   99740    149.96629    163179.45    72.283036    72.283037    36.063018          120    18135.438    18641.475   -34404.733    1402.8874   -1534.9953   -3404.0594    72.283036    62.598946    36.063018     790.7268   -312136.24 
   99750    150.49494    163177.15    72.282695    72.282696    36.062848          120    17456.881    18089.403   -34862.834    956.48726    -1183.869   -3594.2042    72.282695    62.598651    36.062848     227.8167   -312136.74 
   99760     150.6129    163175.14    72.282399      72.2824      36.0627          120    17662.711      17953.3   -34954.887    1233.6768   -523.06728   -3726.0774    72.282399    62.598395      36.0627    220.37456   -312136.43 
   99770    150.53919    163173.37    72.282138    72.282139     36.06257          120    17815.916    17859.464   -34726.343    1321.1018   -1111.3304   -3370.2444    72.282138    62.598169     36.06257    316.34576   -312135.63 
   99780    149.60547    163171.93    72.281925    72.281925    36.062463          120    18489.385    17586.226   -34946.352    1177.7806   -1139.0878   -3362.4685    72.281925    62.597984    36.062463    376.41961   -312133.62 
   99790    151.79358    163170.88     72.28177    72.281771    36.062386          120    18505.176    17443.551   -34292.873     1184.139    -642.4353   -3312.4125     72.28177     62.59785    36.062386    551.95127   -312138.09 
   99800    150.13646    163170.36    72.281694    72.281694    36.062348          120    17851.613     17866.85   -34948.021    1312.8439   -507.96919   -2912.7871    72.281694    62.597784    36.062348    256.81379   -312134.49 
   99810    150.70333    163170.11    72.281657    72.281657     36.06233          120    17666.414    17737.165    -35475.52    1316.9988   -893.85987   -3047.9236    72.281657    62.597752     36.06233   -23.980056   -312135.83 
   99820    149.32917    163169.86     72.28162    72.281621    36.062311          120    18066.035    18089.335    -35847.09    1253.6675   -1253.6259   -3197.8353     72.28162     62.59772    36.062311    102.75972   -312132.74 
   99830    149.61145    163169.73    72.281601    72.281601    36.062302          120    18677.176    17760.472   -35332.932    1624.3525    -1480.539   -3309.9056    72.281601    62.597703    36.062302    368.23884   -312133.01 
   99840    150.37014    163169.96    72.281635    72.281635    36.062319          120    18544.337    17675.062   -35256.292    1670.9038   -1495.0948   -3112.0937    72.281635    62.597733    36.062319    321.03543   -312134.39 
   99850    150.72465    163170.53    72.281718    72.281719     36.06236          120    18483.201     17895.92   -35662.816     1617.733    -1527.119   -2973.3244    72.281718    62.597805     36.06236      238.768   -312134.39 
   99860    150.32095    163171.38    72.281843    72.281844    36.062423          120    18367.015    18234.421   -35253.185    1576.8248   -959.58192   -2922.3088    72.281843    62.597913    36.062423    449.41715   -312133.61 
   99870    151.26177    163172.72    72.282042    72.282043    36.062522          120    18788.316     18334.86   -34392.054    1558.0764   -955.00912   -2862.9616    72.282042    62.598085    36.062522    910.37414   -312135.37 
   99880    151.73147    163174.96    72.282372    72.282373    36.062687          120    18520.859    18375.348   -34259.197      1487.24     -1061.22   -2635.4156    72.282372    62.598371    36.062687    879.00319   -312136.18 
   99890    150.97058     163178.1    72.282837    72.282837    36.062918          120    18620.964    18376.152   -34290.962     1519.306    -982.7938   -2288.8526    72.282837    62.598774    36.062918    902.05105   -312134.63 
   99900    150.82787    163182.17    72.283437    72.283437    36.063218          120    18599.494    18517.107   -34489.456    1256.5062   -1670.9798   -2690.2567    72.283437    62.599293    36.063218    875.71477      -312134 
   99910    151.25641    163187.13    72.284169    72.284169    36.063583          120    18606.403    18276.816   -34711.316    726.74579   -1651.6594   -3092.3514    72.284169    62.599927    36.063583    723.96757   -312134.64 
   99920    150.97932    163192.81    72.285008    72.285009    36.064002          120      18495.9    17725.245    -34974.48     694.8151   -1966.6303   -3439.6764    72.285008    62.600654    36.064002    415.55523   -312134.97 
   99930    150.34713    163198.91    72.285909    72.285909    36.064451          120    17869.402    17851.009   -35864.516    1366.8604   -1998.5287    -3407.888    72.285909    62.601434    36.064451   -48.034921   -312134.09 
   99940    150.57304    163204.99    72.286806    72.286807    36.064899          120    17410.051    17789.507   -36075.517    1679.3877    -1826.788   -3241.1481    72.286806    62.602211    36.064899   -291.98591   -312134.73 
   99950    150.58724    163210.82    72.287667    72.287667    36.065328          120    17846.904    17685.989   -35431.839    1513.4456   -1817.1545    -2695.002    72.287667    62.602956    36.065328    33.684573      -312135 
   99960    151.85557    163216.64    72.288527    72.288528    36.065757          120     18014.71    17144.508   -34483.847    1375.7655    -1355.874   -2577.0005    72.288527    62.603702    36.065757    225.12389   -312137.84 
   99970    150.11118    163222.73    72.289425    72.289426    36.066206          120    18109.008    17537.254   -34282.542    1618.4426   -871.42014    -2561.513    72.289425     62.60448    36.066206    454.57323      -312135 
   99980    149.76166    163229.24    72.290386    72.290387    36.066685          120    17404.765    18224.662   -35163.425    1656.9029   -544.58169   -2728.4018    72.290386    62.605311    36.066685    155.33413   -312134.38 
   99990     150.0584    163235.87    72.291365    72.291365    36.067173          120    16800.915    17722.704   -35754.334    1664.5803   -915.85613   -2775.1314    72.291365    62.606159    36.067173   -410.23825   -312135.14 
  100000    148.45988    163242.07    72.292281    72.292281     36.06763          120    16693.813    17032.789   -36202.449    1898.5259   -1106.6442   -2820.9769    72.292281    62.606952     36.06763   -825.28235   -312132.93 
Loop time of 28466.8 on 1 procs for 100000 steps with 14848 atoms

Performance: 0.304 ns/day, 79.074 hours/ns, 3.513 timesteps/s
100.0% CPU use with 1 MPI tasks x no OpenMP threads

MPI task timing breakdown:
Section |  min time  |  avg time  |  max time  |%varavg| %total
---------------------------------------------------------------
Pair    | 24270      | 24270      | 24270      |   0.0 | 85.26
Bond    | 0.015903   | 0.015903   | 0.015903   |   0.0 |  0.00
Kspace  | 1095.5     | 1095.5     | 1095.5     |   0.0 |  3.85
Neigh   | 2428.2     | 2428.2     | 2428.2     |   0.0 |  8.53
Comm    | 34.624     | 34.624     | 34.624     |   0.0 |  0.12
Output  | 1.0942     | 1.0942     | 1.0942     |   0.0 |  0.00
Modify  | 626.96     | 626.96     | 626.96     |   0.0 |  2.20
Other   |            | 10.04      |            |       |  0.04

Nlocal:    14848 ave 14848 max 14848 min
Histogram: 1 0 0 0 0 0 0 0 0 0
Nghost:    46830 ave 46830 max 46830 min
Histogram: 1 0 0 0 0 0 0 0 0 0
Neighs:    1.00812e+07 ave 1.00812e+07 max 1.00812e+07 min
Histogram: 1 0 0 0 0 0 0 0 0 0

Total # of neighbors = 10081236
Ave neighs/atom = 678.963
Ave special neighs/atom = 0
Neighbor list builds = 8822
Dangerous builds = 0
 
All done!
Total wall time: 7:59:23
