LAMMPS (16 Mar 2018)
Reading data file ...
  triclinic box = (0 0 0) to (9.208 7.97436 18.376) with tilt (-4.604 0 0)
  1 by 1 by 1 MPI processor grid
  reading atoms ...
  116 atoms
Finding 1-2 1-3 1-4 neighbors ...
  special bond factors lj:   0          0          0         
  special bond factors coul: 0          0          0         
  0 = max # of 1-2 neighbors
  0 = max # of 1-3 neighbors
  0 = max # of 1-4 neighbors
  1 = max # of special neighbors
Replicating atoms ...
  triclinic box = (0 0 0) to (73.664 63.7949 36.752) with tilt (-36.832 0 0)
  1 by 1 by 1 MPI processor grid
  14848 atoms
Finding 1-2 1-3 1-4 neighbors ...
  special bond factors lj:   0          0          0         
  special bond factors coul: 0          0          0         
  0 = max # of 1-2 neighbors
  0 = max # of 1-3 neighbors
  0 = max # of 1-4 neighbors
  1 = max # of special neighbors
  Time spent = 0.00264311 secs
PPPM initialization ...
WARNING: System is not charge neutral, net charge = -0.2048 (../kspace.cpp:302)
  using 12-bit tables for long-range coulomb (../kspace.cpp:321)
  G vector (1/distance) = 0.201681
  grid = 36 50 24
  stencil order = 5
  estimated absolute RMS force accuracy = 0.00105653
  estimated relative force accuracy = 7.33721e-05
  using double precision FFTs
  3d grid and FFT values/proc = 65395 43200
Neighbor list info ...
  update every 1 steps, delay 0 steps, check yes
  max neighbors/atom: 2000, page size: 100000
  master list distance cutoff = 15.3
  ghost atom cutoff = 15.3
  binsize = 7.65, bins = 15 9 5
  3 neighbor lists, perpetual/occasional/extra = 3 0 0
  (1) pair morse, perpetual
      attributes: half, newton on
      pair build: half/bin/newton/tri
      stencil: half/bin/3d/newton/tri
      bin: standard
  (2) pair buck, perpetual, copy from (1)
      attributes: half, newton on
      pair build: copy
      stencil: none
      bin: none
  (3) pair lj/cut/coul/long, perpetual, copy from (1)
      attributes: half, newton on
      pair build: copy
      stencil: none
      bin: none
Setting up Verlet run ...
  Unit style    : metal
  Current step  : 0
  Time step     : 0.001
Per MPI rank memory allocation (min/avg/max) = 145.7 | 145.7 | 145.7 Mbytes
Step Temp Volume Cella Cellb Cellc CellGamma Pxx Pyy Pzz Pxy Pxz Pyz Lx Ly Lz Press PotEng 
       0          170    172711.88       73.664    73.664001       36.752          120   -209493.26   -209517.35   -280502.17    14.685192   -4.3260382    5.7805248       73.664    63.794896       36.752   -233170.92   -309191.56 
      10    298.12514    172592.52    73.647026    73.647027    36.743532          120   -212525.71   -212611.52    -259893.8    93.342018   -12.411692   -138.30491    73.647026    63.780196    36.743532   -228343.68   -309480.93 
      20    553.17023    172242.12    73.597153    73.597153    36.718649          120   -211357.14   -210996.73   -200841.54    23.387391   -215.88891   -295.82828    73.597153    63.737005    36.718649    -207731.8   -310038.01 
      30    532.03497    171695.88     73.51927    73.519271    36.679792          120   -188440.51   -187941.97    -120282.7   -209.76323   -728.99353   -373.74931     73.51927    63.669556    36.679792   -165555.06   -310088.68 
      40    309.01962    171032.88    73.424517    73.424518    36.632519          120   -148407.77   -148353.19   -41066.558   -476.35684   -1110.5747   -426.11391    73.424517    63.587498    36.632519   -112609.17   -309735.65 
      50    387.06835     170358.1    73.327829    73.327829     36.58428          120   -106033.94   -106324.22    -4843.333   -593.43076   -1184.3376   -593.14167    73.327829    63.503763     36.58428   -72400.498    -309930.9 
      60    704.22348    169749.94    73.240467    73.240468    36.540693          120   -75184.893   -75093.816   -38484.054   -579.04526   -2100.8328   -453.85635    73.240467    63.428106    36.540693   -62920.921   -310586.45 
      70    897.27011     169226.8    73.165152    73.165152    36.503118          120   -52761.897   -52346.361   -100585.54   -1355.9869   -2440.7872   -339.99454    73.165152    63.362881    36.503118   -68564.598   -311039.32 
      80     750.1747    168769.11    73.099131    73.099131    36.470179          120   -37906.649   -38275.289    -145242.4   -1717.6736   -2996.1077    158.16618    73.099131    63.305705    36.470179   -73808.113      -310842 
      90     472.8648    168350.31    73.038616    73.038616    36.439987          120   -30519.572   -31047.579   -160199.64   -1886.6351   -3550.1047     112.7437    73.038616    63.253297    36.439987   -73922.264   -310373.19 
     100    497.35837    167952.55    72.981047    72.981048    36.411265          120   -15804.599   -15740.156   -140388.84   -1713.6104   -3325.3473   -438.94153    72.981047    63.203442    36.411265     -57311.2   -310468.35 
     110    670.85813    167576.38    72.926521    72.926521    36.384061          120    3114.9883    3178.5028   -97235.635   -1820.6195   -2732.9192   -525.67908    72.926521     63.15622    36.384061   -30314.048   -310859.71 
     120    661.17148    167234.03    72.876825    72.876826    36.359267          120    13634.881    13715.587   -45179.763   -1744.0182   -2302.4503   -1086.1464    72.876825    63.113183    36.359267   -5943.0983   -310906.57 
     130    552.44504    166936.29    72.833551    72.833551    36.337677          120     11540.16    12479.293   -4506.9988   -1823.6084   -2312.0048   -943.22311    72.833551    63.075706    36.337677    6504.1517   -310752.79 
     140     510.5765    166684.56    72.796922    72.796923    36.319403          120    6330.6194    6516.6218    7302.2973   -1418.1013    -2278.997   -772.44401    72.796922    63.043984    36.319403    6716.5128   -310716.24 
     150    571.29021    166470.36    72.765726    72.765727    36.303839          120   -1073.2452   -8.8139403    -17724.39   -1771.5625   -1832.1289   -387.52179    72.765726    63.016968    36.303839   -6268.8166   -310879.44 
     160    627.59078    166276.29    72.737438    72.737438    36.289725          120   -11517.174   -9640.1933   -55826.179   -1528.6368    -1937.541   -232.56887    72.737438     62.99247    36.289725   -25661.182   -311046.24 
     170    595.46926    166082.67    72.709195    72.709195    36.275634          120   -16484.164   -14197.293    -85771.03   -637.40903   -2490.8412   -574.30528    72.709195    62.968011    36.275634   -38817.495   -311048.48 
     180    514.09113    165877.67    72.679267    72.679268    36.260703          120   -12675.245   -10362.651   -101602.33   -327.43085   -2591.8436   -629.86899    72.679267    62.942092    36.260703   -41546.744    -310949.2 
     190    497.69569    165660.13    72.647481    72.647482    36.244845          120   -7157.5657   -5011.5033   -97341.417    255.57878   -2263.4347   -434.51149    72.647481    62.914565    36.244845   -36503.495   -310967.65 
     200    537.30777    165436.33    72.614751    72.614752    36.228515          120   -2699.5382     -880.378   -76441.717   -342.09552   -2260.7015   -354.01864    72.614751     62.88622    36.228515   -26673.878   -311095.38 
     210    537.28039    165216.16    72.582524    72.582524    36.212436          120    1702.3364    3593.6559   -51424.045   -960.33853   -2479.8159   -234.06245    72.582524     62.85831    36.212436   -15376.018   -311149.38 
     220    502.28509    165009.48    72.552245    72.552246     36.19733          120     5425.926     6721.536    -32119.01   -470.08692   -2209.1165   -928.68231    72.552245    62.832088     36.19733   -6657.1828   -311132.26 
     230    481.29154    164822.29      72.5248      72.5248    36.183637          120    6349.5766    6666.6843   -26706.094   -230.49459   -1718.5866   -1654.7677      72.5248     62.80832    36.183637   -4563.2778   -311137.62 
     240    488.00793     164654.1    72.500123    72.500123    36.171325          120    4462.8738     3966.179   -33824.839   -301.36261   -2038.1442   -1902.8299    72.500123    62.786949    36.171325   -8465.2621   -311194.92 
     250    502.27357     164499.2    72.477381    72.477381    36.159979          120    2150.9702    1112.6606   -49233.082   -187.11278   -1885.9821   -1956.5917    72.477381    62.767254    36.159979    -15323.15   -311270.11 
     260    488.17724    164350.13    72.455481    72.455481    36.149053          120    2001.1907    61.798807   -64493.158   -240.66217   -1707.1023    -1896.728    72.455481    62.748288    36.149053   -20810.056   -311291.19 
     270    457.54389    164201.37    72.433614    72.433615    36.138143          120    2761.2941    850.65549   -72339.033   -1015.4649   -1505.8683   -1101.9542    72.433614    62.729351    36.138143   -22909.028   -311279.05 
     280    443.05964    164051.03    72.411501    72.411501     36.12711          120    3996.7808    3035.6574   -69490.053   -820.12031   -1132.2672   -490.14612    72.411501      62.7102     36.12711   -20819.205      -311294 
     290    448.07999    163901.04    72.389426    72.389426    36.116097          120    7261.7953    7150.6833   -58413.595   -811.90866   -1461.0504    86.467142    72.389426    62.691082    36.116097   -14667.039   -311345.88 
     300    445.52844    163756.43    72.368129     72.36813    36.105472          120    11107.536    11099.508   -43373.599   -280.18549   -1827.8479    206.30641    72.368129    62.672639    36.105472   -7055.5183   -311382.89 
     310    432.77935    163622.79    72.348438    72.348439    36.095648          120        13009    13186.729   -29758.478    419.37455   -2281.6033    15.451199    72.348438    62.655586    36.095648   -1187.5829   -311399.28 
     320    419.59333    163503.54    72.330857    72.330858    36.086877          120    12437.748    13008.999   -23401.249       152.56   -2384.6892   -638.81594    72.330857    62.640361    36.086877    681.83287   -311412.32 
     330     416.3682    163398.38    72.315348    72.315348    36.079138          120    10659.345    11780.488   -25876.823   -266.63976   -2460.4287   -869.06675    72.315348    62.626929    36.079138   -1145.6633   -311442.94 
     340    413.82173       163304    72.301422    72.301422    36.072191          120    9959.8266    10802.214   -35743.759   -238.46195   -1926.7859   -754.24633    72.301422    62.614869    36.072191   -4993.9063   -311475.01 
     350    405.20091    163215.74    72.288393    72.288394    36.065691          120     9708.328    10520.438   -46902.768   -399.69079   -1379.4662   -632.26847    72.288393    62.603586    36.065691    -8891.334   -311495.06 
     360    389.43503    163129.54    72.275666    72.275667    36.059341          120    10018.333    11727.996   -52785.595   -380.17855   -1364.5127   -1557.6115    72.275666    62.592563    36.059341   -10346.422   -311499.64 
     370    376.64487    163043.81    72.263002    72.263003    36.053023          120    11452.293    13939.617    -52298.53   -513.31383   -2210.7204   -2194.4878    72.263002    62.581596    36.053023   -8968.8732   -311508.67 
     380    372.94779    162959.47     72.25054     72.25054    36.046805          120    13685.394    15959.848   -46603.764   -528.00076   -2280.0028   -1754.7755     72.25054    62.570804    36.046805   -5652.8407   -311532.89 
     390    370.63853    162879.02    72.238648    72.238649    36.040872          120     15287.84     17459.76   -37211.586   -444.30586   -2952.8065   -1793.3324    72.238648    62.560505    36.040872   -1487.9957   -311560.39 
     400    359.02854    162805.44    72.227769    72.227769    36.035444          120    16441.866    18188.011   -27835.399    299.95819   -3643.1274   -1077.1859    72.227769    62.551083    36.035444    2264.8263   -311568.53 
     410     352.5584    162741.03    72.218242    72.218242    36.030691          120    17493.177    18678.567   -24101.313    265.26524   -3426.2922    -1249.026    72.218242    62.542833    36.030691    4023.4773   -311585.66 
     420    351.17727    162686.24    72.210137    72.210137    36.026647          120    17008.341    18788.661   -25732.207   -76.830164   -3441.2865   -758.59582    72.210137    62.535813    36.026647    3354.9314   -311612.26 
     430    346.02995    162639.45    72.203213    72.203214    36.023193          120     15706.79    17622.525   -31371.998    207.78174   -3004.9303   -352.30615    72.203213    62.529817    36.023193    652.43878   -311631.47 
     440    335.27284    162597.59    72.197018    72.197019    36.020102          120     15310.49    16165.252   -37986.025    181.91398   -3107.2346   -50.942984    72.197018    62.524453    36.020102   -2170.0943   -311638.76 
     450    326.92238    162557.81     72.19113    72.191131    36.017165          120    16591.478    15719.745   -41911.551   -135.08672   -2768.0563     289.9321     72.19113    62.519353    36.017165   -3200.1094   -311648.95 
     460    322.01315    162519.09    72.185398    72.185398    36.014305          120     19289.32      17983.2   -41538.229   -14.222921   -2819.5888   -161.08185    72.185398    62.514389    36.014305   -1421.9032   -311664.88 
     470    317.98579     162482.6    72.179996    72.179996    36.011609          120    21099.315    19252.314   -37523.536    214.77827   -3160.9875    258.21588    72.179996     62.50971    36.011609    942.69759   -311682.27 
     480    313.83578    162450.17    72.175192    72.175193    36.009213          120    21526.851    20294.611   -31313.164    630.64043   -2407.0004    148.53242    72.175192    62.505551    36.009213    3502.7658   -311698.44 
     490    306.49983    162423.53    72.171247    72.171248    36.007245          120    21431.943    22073.957   -26829.523    411.82157   -2821.7962   -115.98795    72.171247    62.502134    36.007245    5558.7922   -311708.05 
     500     301.6445    162403.87    72.168335    72.168336    36.005792          120    21018.679    22785.378   -25308.431    -107.8971   -3030.9745    632.92552    72.168335    62.499612    36.005792    6165.2089   -311721.08 
     510    296.03744    162391.06    72.166438    72.166439    36.004845          120    19966.089    22060.238   -27198.892   -61.941089   -2886.5677    373.50638    72.166438    62.497969    36.004845    4942.4783   -311732.52 
     520    290.64482    162383.57    72.165327    72.165328    36.004291          120    19124.675    21151.373   -30516.394   -95.142339   -2955.0691    106.78104    72.165327    62.497007    36.004291    3253.2181   -311744.02 
     530    286.28872    162379.47    72.164721    72.164722    36.003989          120    18590.858    20424.154   -34831.319   -458.21822    -2896.317    638.00896    72.164721    62.496482    36.003989    1394.5643    -311756.3 
     540    283.37027    162376.95    72.164348    72.164348    36.003802          120    17736.336    20393.719   -37569.622   -551.70748   -2910.1779     460.3425    72.164348    62.496159    36.003802    186.81112   -311771.14 
     550    275.85956    162374.91    72.164045    72.164045    36.003651          120    17600.261     20945.38    -37357.56   -519.86244   -2686.8112    439.39352    72.164045    62.495897    36.003651     396.0271   -311776.88 
     560    272.62897    162373.43    72.163825    72.163826    36.003542          120    18316.225    21926.914   -35394.101   -591.26349   -2928.5855    728.82586    72.163825    62.495707    36.003542     1616.346   -311789.38 
     570    266.93013    162373.54    72.163842    72.163842     36.00355          120    19365.134    22320.627   -30911.219   -215.66402   -2536.0548    494.99141    72.163842    62.495721     36.00355     3591.514   -311797.19 
     580    265.06568     162376.7    72.164311    72.164311    36.003784          120    20223.862    22197.307   -28621.714    267.40303   -2470.2936    484.48635    72.164311    62.496127    36.003784    4599.8182   -311811.57 
     590     260.8271    162383.61    72.165333    72.165334    36.004294          120    19944.163    22047.455   -27764.756    364.81624   -2480.8594    829.65964    72.165333    62.497012    36.004294    4742.2875   -311821.18 
     600    256.70603    162394.07    72.166884    72.166884    36.005068          120    19858.577    20686.694   -29269.495    -3.274778   -1906.8705    770.16318    72.166884    62.498355    36.005068     3758.592   -311830.11 
     610    254.22936    162407.05    72.168805    72.168806    36.006026          120    19408.612    19713.961   -32152.055   -367.87136   -2580.7163   -99.953422    72.168805    62.500019    36.006026     2323.506   -311842.12 
     620    249.73508    162421.18      72.1709      72.1709    36.007071          120    19417.386    19212.454   -34319.282   -379.28219   -2962.4594   -623.25729      72.1709    62.501833    36.007071    1436.8525   -311849.73 
     630    245.51551     162435.6    72.173035    72.173035    36.008137          120    19215.812    19129.572   -36014.129   -437.46838   -2796.5297   -656.96986    72.173035    62.503682    36.008137    777.08506   -311857.84 
     640    241.46602     162449.8    72.175138    72.175139    36.009186          120     19981.06    19225.349   -35405.702    -226.7826   -2656.9194   -491.54198    72.175138    62.505504    36.009186    1266.9023   -311865.16 
     650    239.93848    162464.16    72.177265    72.177265    36.010247          120    20327.407     19584.48   -33545.787    103.50624   -2707.8554   -264.54875    72.177265    62.507346    36.010247    2122.0332   -311876.66 
     660    234.25503    162479.42    72.179524    72.179524    36.011374          120    20087.538    20420.621   -31867.124    -156.4454   -2627.4625   -252.01971    72.179524    62.509302    36.011374    2880.3451   -311880.32 
     670    231.44785    162496.15    72.182002    72.182002     36.01261          120    19723.282    20744.563   -30611.693   -109.30574    -1933.036    -389.1289    72.182002    62.511448     36.01261    3285.3841   -311889.01 
     680    226.49377    162514.59    72.184732    72.184732    36.013972          120    18203.238    20199.197   -30128.756   -223.98585   -2327.6275    -364.2434    72.184732    62.513812    36.013972    2757.8933   -311893.22 
     690    222.77825    162534.21    72.187636    72.187637    36.015422          120     16772.11    19816.941   -31959.516   -723.88653   -2224.8738   -439.32836    72.187636    62.516328    36.015422    1543.1787   -311898.99 
     700     221.3301    162553.91    72.190553    72.190554    36.016877          120    16570.595    18996.229   -34470.755   -823.84671   -2386.8813   -325.24125    72.190553    62.518854    36.016877    365.35633   -311908.68 
     710    221.16054    162572.72    72.193338    72.193338    36.018266          120    16241.047    18801.542   -35671.171   -748.66027   -2552.1261   -204.60202    72.193338    62.521265    36.018266   -209.52752   -311920.95 
     720    219.20713    162590.15    72.195918    72.195918    36.019553          120    15563.025     19516.03   -36667.536   -203.96215   -2388.6651   -532.76672    72.195918      62.5235    36.019553   -529.49374   -311929.54 
     730    215.50997    162606.11    72.198279     72.19828    36.020731          120    16328.737     19722.63   -35665.323    602.68511   -2415.2575   -859.58541    72.198279    62.525545    36.020731    128.68113    -311933.4 
     740    213.89166    162621.19    72.200511    72.200512    36.021845          120    17565.895    19816.943    -34641.64     702.5491   -2544.1216    -1112.694    72.200511    62.527478    36.021845    913.73258   -311941.38 
     750    207.44654    162636.12     72.20272    72.202721    36.022947          120    18326.916    19038.788   -33375.897    396.91372   -2654.9222   -1129.9489     72.20272    62.529391    36.022947    1329.9356   -311940.17 
     760    207.18879    162651.26    72.204961    72.204961    36.024065          120    18492.604    18305.101   -32907.378    -55.56421   -1935.4279   -865.08027    72.204961    62.531331    36.024065    1296.7756   -311950.33 
     770    205.00694    162666.63    72.207235    72.207235      36.0252          120    17901.595    18856.804   -32983.895    181.90381   -1899.3283   -904.14954    72.207235      62.5333      36.0252    1258.1676   -311956.82 
     780    202.61881    162682.13    72.209528    72.209529    36.026344          120    17224.449    18376.226   -33629.009    580.39889   -1912.5132   -705.06229    72.209528    62.535287    36.026344    657.22192   -311962.52 
     790    201.30911    162697.25    72.211766    72.211766     36.02746          120    16701.852    17871.986   -35403.302    721.24356   -1894.3634   -753.30768    72.211766    62.537224     36.02746   -276.48789   -311969.86 
     800    197.33686    162711.26    72.213839     72.21384    36.028494          120    16268.631    17800.222   -36583.445    957.09534   -1582.2478   -782.02732    72.213839     62.53902    36.028494   -838.19727   -311971.85 
     810    192.66637    162723.73    72.215683    72.215683    36.029414          120    16626.718    17647.441   -37450.967    817.89719   -1250.5142   -615.15352    72.215683    62.540616    36.029414   -1058.9358   -311971.73 
     820    191.46571    162734.61    72.217293    72.217293    36.030217          120     17311.31    17697.442   -36255.172    599.67932   -1335.7647   -570.14101    72.217293    62.542011    36.030217   -415.47338    -311977.7 
     830    189.68954    162744.43    72.218746    72.218747    36.030943          120    16977.075    17236.916   -35474.525    681.77581   -1772.0823   -668.81408    72.218746    62.543269    36.030943   -420.17787   -311982.44 
     840    188.25107    162753.28    72.220055    72.220055    36.031595          120    16136.397     16733.72   -35399.924    528.32683   -1773.0031   -517.26524    72.220055    62.544403    36.031595   -843.26899   -311987.15 
     850    186.06615    162760.92    72.221184    72.221185    36.032159          120    16017.231    16762.479    -35267.73    490.63142   -1194.2626    -220.6225    72.221184    62.545381    36.032159    -829.3399   -311991.06 
     860    183.37777    162767.35    72.222135    72.222135    36.032633          120    16014.523    16440.848     -35735.4    808.22344   -1289.7616   -346.43716    72.222135    62.546204    36.032633   -1093.3429   -311993.23 
     870    181.86491    162772.52      72.2229    72.222901    36.033015          120    16391.291    17121.038    -34826.86    867.69411   -1145.1462   -320.10023      72.2229    62.546867    36.033015   -438.17711   -311997.53 
     880    180.29664    162776.98     72.22356    72.223561    36.033345          120    16922.088    18126.839    -35435.76    704.65782   -1578.2326   -458.19881     72.22356    62.547439    36.033345   -128.94438   -312001.16 
     890    179.16735    162781.06    72.224164    72.224164    36.033645          120    17272.529    17733.148   -35576.093    559.56729   -1834.0443   -691.47521    72.224164    62.547961    36.033645   -190.13864   -312006.13 
     900    178.81225    162784.72    72.224704    72.224705    36.033915          120    17025.894    17302.121   -35839.188    664.95498   -2124.6307   -430.72303    72.224704    62.548429    36.033915   -503.72456   -312011.94 
     910    176.75868    162787.74    72.225151    72.225151    36.034138          120    17179.597    17040.385   -36100.501    478.96634   -2017.1112   -752.94974    72.225151    62.548816    36.034138   -626.83944   -312014.01 
     920    176.12586    162790.08    72.225498    72.225498    36.034311          120    17553.603    17687.244   -35582.432    630.54632   -1745.5518    -863.9715    72.225498    62.549117    36.034311    -113.8615   -312019.04 
     930    173.97599    162792.19    72.225809    72.225809    36.034466          120    17331.321    18222.076   -34894.501    634.60502   -1359.2472   -691.06638    72.225809    62.549386    36.034466    219.63192   -312020.31 
     940    172.07115    162794.38    72.226133    72.226134    36.034628          120    17558.538    18265.525   -34055.494    401.13432   -1557.6724   -725.46176    72.226133    62.549667    36.034628    589.52309   -312021.84 
     950    169.56564    162796.98    72.226517    72.226518     36.03482          120    18090.979    18658.676   -34087.617    690.67714   -2452.9449    -827.4406    72.226517    62.549999     36.03482    887.34605   -312022.17 
     960    169.74203    162800.16    72.226987    72.226988    36.035054          120    17401.797     18276.86   -34296.996    531.66193     -2031.33   -1140.1934    72.226987    62.550407    36.035054    460.55349   -312026.83 
     970    171.02284    162803.56     72.22749    72.227491    36.035305          120    17228.149    16988.245   -34988.679    600.84033    -2209.603   -1300.2509     72.22749    62.550842    36.035305   -257.42812   -312034.15 
     980    170.15033    162806.61    72.227941    72.227942     36.03553          120    17037.107    16983.559   -34882.972    852.45491   -2333.2346   -555.37369    72.227941    62.551233     36.03553   -287.43548   -312036.67 
     990    166.81012    162809.24    72.228331    72.228332    36.035725          120    16932.648    17940.539   -35277.386    1299.2769   -2091.2275   -342.04126    72.228331     62.55157    36.035725   -134.73319   -312034.17 
    1000    166.42432    162811.63    72.228684    72.228684    36.035901          120     16806.32    18201.526   -34992.986    1248.0004   -2036.3184   -697.45359    72.228684    62.551876    36.035901    4.9537298   -312037.41 
Loop time of 296.282 on 1 procs for 1000 steps with 14848 atoms

Performance: 0.292 ns/day, 82.300 hours/ns, 3.375 timesteps/s
100.0% CPU use with 1 MPI tasks x no OpenMP threads

MPI task timing breakdown:
Section |  min time  |  avg time  |  max time  |%varavg| %total
---------------------------------------------------------------
Pair    | 238.05     | 238.05     | 238.05     |   0.0 | 80.35
Bond    | 0.00019407 | 0.00019407 | 0.00019407 |   0.0 |  0.00
Kspace  | 10.86      | 10.86      | 10.86      |   0.0 |  3.67
Neigh   | 40.676     | 40.676     | 40.676     |   0.0 | 13.73
Comm    | 0.40318    | 0.40318    | 0.40318    |   0.0 |  0.14
Output  | 0.010519   | 0.010519   | 0.010519   |   0.0 |  0.00
Modify  | 6.1739     | 6.1739     | 6.1739     |   0.0 |  2.08
Other   |            | 0.106      |            |       |  0.04

Nlocal:    14848 ave 14848 max 14848 min
Histogram: 1 0 0 0 0 0 0 0 0 0
Nghost:    46912 ave 46912 max 46912 min
Histogram: 1 0 0 0 0 0 0 0 0 0
Neighs:    1.01088e+07 ave 1.01088e+07 max 1.01088e+07 min
Histogram: 1 0 0 0 0 0 0 0 0 0

Total # of neighbors = 10108826
Ave neighs/atom = 680.821
Ave special neighs/atom = 0
Neighbor list builds = 148
Dangerous builds = 0
PPPM initialization ...
  using 12-bit tables for long-range coulomb (../kspace.cpp:321)
  G vector (1/distance) = 0.202646
  grid = 36 50 24
  stencil order = 5
  estimated absolute RMS force accuracy = 0.000995079
  estimated relative force accuracy = 6.91044e-05
  using double precision FFTs
  3d grid and FFT values/proc = 65395 43200
Setting up Verlet run ...
  Unit style    : metal
  Current step  : 0
  Time step     : 0.001
Per MPI rank memory allocation (min/avg/max) = 152.6 | 152.6 | 152.6 Mbytes
Step Temp Volume Cella Cellb Cellc CellGamma Pxx Pyy Pzz Pxy Pxz Pyz Lx Ly Lz Press PotEng 
       0    166.42432    162811.63    72.228684    72.228684    36.035901          120    16818.713    18214.725    -34985.44    1248.4948   -2036.0104   -697.59852    72.228684    62.551876    36.035901    15.999238   -312037.22 
      10     165.5584    162813.89    72.229018    72.229019    36.036068          120    16931.641    18033.371   -34689.348    835.84264   -1949.8867   -782.26244    72.229018    62.552165    36.036068    91.888105   -312039.19 
      20    165.73518    162816.11    72.229346    72.229347    36.036231          120     17019.68    17813.828   -34873.728    668.93977   -1789.0473   -642.88335    72.229346    62.552449    36.036231   -13.406483    -312042.7 
      30    162.17086    162818.17    72.229652    72.229652    36.036384          120    16328.926    17511.321    -34986.28    797.99031   -1755.9692   -822.93805    72.229652    62.552714    36.036384   -382.01067   -312038.67 
      40    163.35102    162819.82    72.229895    72.229895    36.036505          120    16136.646    17092.613   -34709.706    1035.7507   -2442.5659   -1171.7014    72.229895    62.552924    36.036505   -493.48244   -312043.39 
      50    163.29688    162820.93     72.23006     72.23006    36.036587          120    16177.041    17539.063   -35276.821    1181.1522   -2645.0357   -1179.1346     72.23006    62.553067    36.036587   -520.23932   -312045.64 
      60    163.56383    162821.52    72.230146    72.230147     36.03663          120     16091.34    17249.381   -35277.434    862.91565   -2208.4085   -709.55646    72.230146    62.553142     36.03663   -645.57096   -312048.55 
      70    162.87118     162821.5    72.230144    72.230145    36.036629          120    16203.759    17059.537   -35386.755    625.32928   -1980.8444   -584.65676    72.230144     62.55314    36.036629   -707.81978   -312048.68 
      80    160.41729    162820.89    72.230053    72.230053    36.036584          120    16256.238    16882.468   -34722.862    457.08067   -1372.8632   -368.46283    72.230053    62.553061    36.036584   -528.05207   -312045.16 
      90    160.53352    162819.82    72.229895    72.229895    36.036505          120    16461.913    17070.325   -34558.109    475.50396   -1286.1696   -770.11046    72.229895    62.552924    36.036505   -341.95697    -312046.8 
     100    162.52249    162818.52    72.229703    72.229704    36.036409          120    17317.121    17512.261   -34298.749    874.44265   -2017.6716   -1366.0711    72.229703    62.552759    36.036409    176.87757   -312051.01 
     110    161.69603    162817.45    72.229544    72.229545     36.03633          120    17215.841    18536.045   -33933.329     1208.945   -2188.9895   -1685.4854    72.229544    62.552621     36.03633    606.18564   -312050.16 
     120    162.30812    162816.89    72.229462    72.229463    36.036289          120    16653.401    18688.624   -34468.211    1062.0315    -2324.879   -1524.8365    72.229462     62.55255    36.036289    291.27121   -312051.62 
     130    162.19381    162816.64    72.229424    72.229425     36.03627          120    16746.076    17976.053   -34505.413    1636.8082   -2636.1056   -1229.2987    72.229424    62.552517     36.03627    72.238706   -312051.73 
     140     162.8091    162816.49    72.229402    72.229403    36.036259          120    16315.745    18156.302   -34249.611     1440.113    -2582.088   -1187.2601    72.229402    62.552498    36.036259    74.145118   -312052.21 
     150    162.94984     162816.4     72.22939    72.229391    36.036253          120    15884.219    17967.165   -33873.655    968.15643   -2225.3299   -957.67882     72.22939    62.552487    36.036253   -7.4239644   -312052.29 
     160    161.21991    162816.32    72.229377    72.229378    36.036247          120    16621.723    17923.585   -34370.107    697.92793   -2255.2935   -696.98842    72.229377    62.552476    36.036247      58.4005   -312048.09 
     170    161.90392    162816.33    72.229378    72.229379    36.036247          120    17799.895    18195.769   -34462.783    432.59106    -1883.438   -637.69774    72.229378    62.552477    36.036247    510.96018   -312047.63 
     180      163.033    162816.76    72.229443    72.229443    36.036279          120    18042.857    18353.261    -34494.74    397.48581   -1786.3358   -628.70567    72.229443    62.552533    36.036279    633.79255   -312048.89 
     190    163.12244    162817.72    72.229585    72.229586     36.03635          120    17797.218    18275.182   -34397.996    561.36618   -1748.4292   -1028.3202    72.229585    62.552656     36.03635    558.13471   -312047.71 
     200    164.27302    162819.15    72.229796    72.229796    36.036456          120    17933.884    18190.888   -34633.714     615.4336   -1805.1001   -1347.1803    72.229796    62.552839    36.036456    497.01933   -312047.71 
     210    166.28431    162820.89    72.230054    72.230054    36.036584          120    17477.923    17387.715    -35121.96    447.58889   -1822.1546   -1491.5596    72.230054    62.553062    36.036584   -85.440482   -312049.47 
     220     166.5707    162822.54    72.230297    72.230297    36.036705          120    17602.623    17001.663    -34583.91    242.72183   -1545.1033    -1697.536    72.230297    62.553273    36.036705    6.7917636   -312047.73 
     230     168.0334    162824.13    72.230533    72.230533    36.036823          120    17880.783    17616.245   -34278.016    340.53464   -1610.2113   -1572.5658    72.230533    62.553477    36.036823    406.33741   -312047.58 
     240    167.73438    162826.03    72.230813    72.230814    36.036963          120    18426.485    18128.837   -34010.691    337.04092   -1426.2846   -1250.5056    72.230813     62.55372    36.036963    848.21052   -312044.41 
     250    168.09101    162828.57    72.231189    72.231189     36.03715          120    18593.134    18369.077   -34100.378      605.963   -1090.7588   -1388.4006    72.231189    62.554045     36.03715    953.94419   -312042.57 
     260    170.56611    162831.84    72.231672    72.231673    36.037392          120    18655.174    18221.384   -34284.013    988.46398   -1019.0705   -1203.2822    72.231672    62.554464    36.037392    864.18148   -312045.09 
     270    171.07284    162835.71    72.232245    72.232245    36.037677          120    18121.598    17834.307   -34525.718     1257.931   -1387.6173   -617.33493    72.232245     62.55496    36.037677    476.72913    -312043.7 
     280     171.7266    162839.82    72.232853    72.232854    36.037981          120    17802.364    17318.604   -34930.145    1042.1039   -1064.3474   -962.72302    72.232853    62.555486    36.037981     63.60745   -312042.86 
     290    170.87723    162843.86     72.23345     72.23345    36.038278          120    17866.292    17468.625   -34777.547    1162.7041   -1056.6926   -907.74149     72.23345    62.556003    36.038278    185.78988   -312038.51 
     300    171.64506    162847.88    72.234045    72.234045    36.038575          120    18076.681    17807.692   -34542.596    1098.3434   -1600.1086   -1120.0918    72.234045    62.556519    36.038575    447.25888   -312037.73 
     310    171.78795    162852.14    72.234674    72.234674    36.038889          120    18231.843    17991.261   -34143.001    1425.5683   -1818.8547   -1118.8128    72.234674    62.557063    36.038889     693.3677   -312036.01 
     320    172.98947    162856.81    72.235364    72.235365    36.039234          120    18452.641    17822.609   -34156.427    1541.1446   -1972.6943   -1028.0175    72.235364    62.557661    36.039234    706.27446   -312036.34 
     330     172.8245    162861.89    72.236115    72.236116    36.039608          120    18373.792    17644.755   -34549.855     1310.935   -1859.4893   -1236.4899    72.236115    62.558311    36.039608    489.56374   -312033.68 
     340    173.23259    162867.14    72.236891    72.236892    36.039996          120    18007.518    17126.681   -35619.731    1085.6144   -1387.7765   -855.17054    72.236891    62.558984    36.039996   -161.84436   -312032.63 
     350    174.64358    162872.08    72.237622    72.237622     36.04036          120    17972.156    17315.755   -35695.273    927.55341   -1232.4354    -885.7742    72.237622    62.559616     36.04036   -135.78734   -312033.04 
     360    176.06994    162876.72    72.238308    72.238309    36.040703          120    17899.791    18377.523   -35105.916     821.2902   -1250.8984   -637.95977    72.238308    62.560211    36.040703    390.46596   -312034.47 
     370    177.18179    162881.49    72.239014    72.239014    36.041054          120    18003.057    18773.554    -34701.22    1171.6216   -1557.0937   -912.61176    72.239014    62.560822    36.041054    691.79711   -312035.17 
     380      175.243    162886.66    72.239778    72.239778    36.041436          120    18137.176    18459.315   -34493.935    1250.9977   -1345.5792   -635.79091    72.239778    62.561483    36.041436     700.8518   -312030.56 
     390    177.63261    162892.24    72.240602    72.240603    36.041847          120      18045.4    18645.685   -34843.819    827.37946   -780.92695    -303.4176    72.240602    62.562197    36.041847    615.75516   -312034.44 
     400    175.53037    162898.13    72.241473    72.241473    36.042281          120    18151.383    17871.945   -34669.723    719.64436   -805.79234   -617.45822    72.241473    62.562951    36.042281    451.20151   -312030.01 
     410    176.95521    162904.13    72.242361    72.242361    36.042724          120     17913.74    16990.384   -34852.566    1010.8306   -876.28668   -1289.2812    72.242361     62.56372    36.042724    17.185853   -312032.45 
     420    178.01988    162909.95     72.24322    72.243221    36.043153          120    17297.588    17430.686   -34681.088    894.41351   -862.81138   -1291.9236     72.24322    62.564465    36.043153    15.728904   -312034.54 
     430    178.97601     162915.5    72.244041    72.244041    36.043562          120    16864.401    17211.968   -35004.299    703.83078   -1290.1449   -678.69744    72.244041    62.565175    36.043562   -309.31023   -312036.44 
     440    178.23762    162920.57     72.24479    72.244791    36.043936          120    17318.041    17001.057   -35257.287    735.07544   -1202.5935   -803.59882     72.24479    62.565824    36.043936    -312.7295    -312035.8 
     450    178.07774    162925.21    72.245476    72.245477    36.044279          120    18327.619    17215.963   -34353.042    803.79857   -1078.0436   -958.65756    72.245476    62.566418    36.044279    396.84682   -312035.95 
     460    177.24184    162929.98    72.246181    72.246182    36.044631          120    18605.954    17897.449   -34232.905    1031.4983   -1543.1871   -1313.5892    72.246181    62.567029    36.044631      756.833   -312035.67 
     470    176.17099    162935.19    72.246952    72.246953    36.045015          120    18177.049    17731.879   -34148.032    915.21574   -1236.2006   -1733.9071    72.246952    62.567696    36.045015    586.96541    -312035.4 
     480    175.13768     162940.7    72.247766    72.247767    36.045421          120    17044.033    17467.858   -34051.762    1273.7442   -1523.2957   -1490.3292    72.247766    62.568401    36.045421    153.37643   -312035.19 
     490    175.61726     162946.1    72.248564    72.248565    36.045819          120    15988.127    17021.772   -34367.394    1322.6775   -1455.6779   -1317.8469    72.248564    62.569093    36.045819   -452.49833   -312037.69 
     500    176.50682    162950.93    72.249278    72.249278    36.046175          120     16030.06    16764.618   -34284.716    1140.9823   -1021.3336    -1298.168    72.249278    62.569711    36.046175   -496.67914   -312041.99 
     510    176.13102    162955.13    72.249898    72.249899    36.046485          120    16396.763    16851.798   -34435.758    650.63229   -1375.3412   -1255.1015    72.249898    62.570248    36.046485   -395.73241   -312043.71 
     520    172.66655     162958.8    72.250441    72.250442    36.046756          120     16547.31    17214.005   -34711.533   -48.922772   -1288.1616   -1146.9122    72.250441    62.570718    36.046756    -316.7392   -312039.29 
     530    172.87889    162962.07    72.250924    72.250925    36.046997          120    16439.836    18002.094   -34339.317    256.43376   -1213.9185   -1585.1385    72.250924    62.571137    36.046997     34.20432    -312042.2 
     540    172.57519    162965.19    72.251385    72.251385    36.047227          120    16342.356    18040.501   -34590.633    708.88224   -990.43514   -1660.3333    72.251385    62.571535    36.047227   -69.258461   -312044.47 
     550    171.01061    162968.13     72.25182    72.251821    36.047444          120    16294.027    18043.751   -34669.944    481.90178    -884.1799   -1558.1629     72.25182    62.571912    36.047444   -110.72222   -312044.73 
     560    171.30524    162970.86    72.252223    72.252223    36.047645          120     16063.04    17641.762   -34307.388     311.9316   -1042.7298   -1717.9242    72.252223    62.572261    36.047645   -200.86213   -312048.16 
     570      171.432    162973.31    72.252586    72.252586    36.047826          120    16837.556    17131.751   -34221.991    228.16294   -1546.2801   -1180.9993    72.252586    62.572575    36.047826   -84.227788    -312051.4 
     580    169.42451    162975.59    72.252923    72.252923    36.047994          120    17466.513    17136.085   -34501.229    4.0493754   -1450.0159   -730.88181    72.252923    62.572867    36.047994    33.789492   -312049.94 
     590    170.34889    162977.78    72.253245    72.253246    36.048155          120     17263.46    17164.764   -35004.204    338.02755    -1568.663   -613.71237    72.253245    62.573147    36.048155   -191.99327    -312054.9 
     600    167.76071    162979.75    72.253536    72.253537      36.0483          120    17151.395    17185.973   -34415.775    463.71506   -1675.0529   -646.56133    72.253536    62.573399      36.0483   -26.135913   -312052.35 
     610    168.04802    162981.62    72.253813    72.253814    36.048438          120    17645.042    17539.172   -34242.787    921.63082   -1680.4367   -649.20833    72.253813    62.573639    36.048438     313.8091   -312055.54 
     620    166.92077    162983.63     72.25411    72.254111    36.048586          120    17430.372    17359.696   -34980.204    1615.2053   -1413.3942   -749.17822     72.25411    62.573896    36.048586   -63.378584   -312055.39 
     630    165.25258     162985.5    72.254387    72.254388    36.048724          120    16888.823    17105.732    -35598.22    1102.3381   -1483.2999   -514.88686    72.254387    62.574135    36.048724   -534.55529   -312054.63 
     640    166.94419    162986.84    72.254584    72.254585    36.048823          120    17149.067    16627.008   -36185.593    592.83274   -1514.9977   -676.69479    72.254584    62.574306    36.048823   -803.17281   -312059.62 
     650    166.12343     162987.4    72.254668    72.254668    36.048864          120    17463.352    16048.542   -36430.013    368.73268   -1701.3265   -982.74342    72.254668    62.574378    36.048864   -972.70666   -312059.94 
     660    167.46425    162987.12    72.254626    72.254627    36.048844          120    17373.438    16264.011   -35600.867    219.58932    -1055.433   -980.37035    72.254626    62.574342    36.048844   -654.47268   -312064.15 
     670    165.74945    162986.25    72.254497    72.254497    36.048779          120    16898.971    16835.525   -35533.541    252.30618   -915.44035   -923.72404    72.254497     62.57423    36.048779   -599.68176   -312062.93 
     680    165.05796    162984.85    72.254291    72.254292    36.048676          120    16614.425    16832.068   -35546.679    150.98908   -1106.8433   -1255.0233    72.254291    62.574052    36.048676   -700.06196   -312062.51 
     690     165.7679    162982.88    72.253999       72.254    36.048531          120    16555.733    16753.352   -35942.026    91.461895   -1365.0029   -1113.1676    72.253999    62.573799    36.048531   -877.64715   -312065.68 
     700    164.38575     162980.2    72.253603    72.253604    36.048333          120    16581.188    16828.662   -36417.424   -172.63678   -1758.6327   -794.97073    72.253603    62.573456    36.048333   -1002.5246   -312063.71 
     710    164.65531    162976.76    72.253095    72.253096     36.04808          120    16718.104    16718.014    -35491.35   -87.870929    -1473.674   -1144.3081    72.253095    62.573017     36.04808   -685.07725   -312065.39 
     720    162.92501    162972.85    72.252517    72.252518    36.047791          120    16814.825    17354.183   -34806.076    182.91334   -1101.2783   -996.31633    72.252517    62.572516    36.047791   -212.35614   -312062.57 
     730    162.99297    162968.89    72.251933    72.251933      36.0475          120    16700.661    18408.491   -34248.436    216.08493   -1122.0754   -966.85111    72.251933     62.57201      36.0475    286.90542   -312063.06 
     740    164.78386     162965.3    72.251401    72.251402    36.047235          120    16945.005    18408.827   -34424.813    471.76126   -1541.3523   -975.09601    72.251401     62.57155    36.047235    309.67289   -312066.26 
     750    162.84729    162962.11     72.25093    72.250931       36.047          120    17098.115     17842.55   -34538.405     896.0504   -1931.6602   -1023.0905     72.25093    62.571142       36.047    134.08655   -312062.22 
     760    163.61086    162959.17    72.250495    72.250496    36.046783          120    17038.571    17784.654   -34820.888    915.28494   -2130.2488   -1079.6303    72.250495    62.570765    36.046783   0.77909671   -312063.16 
     770    164.94519    162956.32    72.250074    72.250075    36.046573          120    17000.728    17601.188   -35193.378    715.15996   -1992.0409   -1247.3002    72.250074      62.5704    36.046573   -197.15403    -312065.6 
     780    164.34622    162953.42    72.249645    72.249646    36.046359          120    16995.549    17523.932   -34990.135    847.58456   -1790.7183   -1351.5387    72.249645    62.570029    36.046359   -156.88467   -312063.37 
     790    165.35763    162950.49    72.249213    72.249213    36.046143          120    17057.225    17933.755   -35068.852     1047.672   -1944.8848   -1062.7423    72.249213    62.569654    36.046143   -25.957291   -312064.55 
     800    166.46542    162947.64    72.248792    72.248793    36.045933          120    17287.221    18097.308   -35005.604    1104.7987   -1846.0329   -1164.0444    72.248792     62.56929    36.045933    126.30808   -312065.69 
     810    166.77839    162945.04    72.248408    72.248408    36.045741          120    17933.082    18205.976   -34283.441    838.07135   -1162.4216   -1300.8587    72.248408    62.568957    36.045741    618.53901   -312065.18 
     820    166.89404    162943.06    72.248114    72.248115    36.045595          120      17964.8    18219.336   -34042.272    594.98481   -804.39377   -651.71733    72.248114    62.568703    36.045595    713.95456   -312064.52 
     830    168.01955    162941.77    72.247924    72.247924      36.0455          120    17886.818    18142.965    -34421.15    328.76396   -716.39619   -592.12894    72.247924    62.568538      36.0455     536.2109   -312064.61 
     840    167.36451    162941.04    72.247816    72.247816    36.045446          120    18362.159    18011.105   -34252.753    620.43979    -461.9023   -530.16769    72.247816    62.568445    36.045446    706.83687   -312061.36 
     850    168.55792    162940.95    72.247803    72.247803    36.045439          120    18282.455    18688.476   -34874.437      534.165   -933.24081   -523.81651    72.247803    62.568433    36.045439    698.83132   -312062.42 
     860    168.33017    162941.49    72.247882    72.247883    36.045479          120    17838.426    18437.157   -34671.611    251.28567   -1189.8487   -1091.8555    72.247882    62.568502    36.045479    534.65739    -312060.5 
     870     166.9719    162942.49    72.248031    72.248031    36.045553          120    17711.849    17886.267   -34365.649    792.62634   -1065.6655   -1097.1404    72.248031    62.568631    36.045553    410.82239   -312055.79 
     880    168.91941     162943.8    72.248225    72.248225     36.04565          120    17310.621    17769.751   -34574.181    962.59559   -1158.0616   -1464.8652    72.248225    62.568798     36.04565    168.73066   -312057.94 
     890    168.20089    162945.27    72.248441    72.248441    36.045758          120    17721.951    17990.187   -34462.548    595.45191   -1164.6561   -1790.1705    72.248441    62.568986    36.045758    416.53017   -312054.58 
     900    170.03514    162947.04    72.248703    72.248703    36.045888          120    17812.621    18235.152   -34476.247    481.49583   -1113.8072   -1717.9761    72.248703    62.569212    36.045888    523.84197   -312056.15 
     910    169.66745    162949.19     72.24902    72.249021    36.046047          120    17422.241    18111.198    -34677.66    560.59267   -1190.5273   -1710.5173     72.24902    62.569487    36.046047     285.2596   -312052.91 
     920    169.80064    162951.52    72.249364    72.249365    36.046219          120    17692.482    17642.966   -35367.482     480.8165   -645.44369   -1729.8159    72.249364    62.569786    36.046219   -10.678204   -312051.76 
     930    172.59298    162953.77    72.249697    72.249698    36.046385          120    17834.353    17454.542   -36008.223    594.33174   -274.23294   -1014.8156    72.249697    62.570074    36.046385   -239.77596   -312055.02 
     940    173.27408    162955.73    72.249987    72.249988    36.046529          120     17230.38    17419.783   -35432.051    698.51009    150.71524   -1014.2516    72.249987    62.570325    36.046529   -260.62934    -312054.5 
     950    173.85137    162957.42    72.250237    72.250238    36.046654          120    16889.672    17542.583   -34430.018    102.49106    186.42179   -942.63121    72.250237    62.570542    36.046654    0.7457385   -312053.97 
     960    172.21948    162958.99    72.250468    72.250469    36.046769          120    16530.702    16855.038    -34777.39    94.809541   -65.552566   -660.68599    72.250468    62.570742    36.046769   -463.88291   -312049.08 
     970    172.44468    162960.07    72.250628    72.250629    36.046849          120    15951.954    16428.762    -35217.25    251.65431   -325.05512   -785.51515    72.250628     62.57088    36.046849   -945.51131   -312048.32 
     980    172.71439    162960.33    72.250666    72.250667    36.046868          120    16271.129    17034.437    -35279.48    44.431829   -683.06068    -1516.545    72.250666    62.570913    36.046868   -657.97158   -312047.14 
     990     173.9439    162960.03    72.250623    72.250624    36.046847          120    16770.947    17785.318   -34094.681    436.34739   -1103.1107    -1269.717    72.250623    62.570876    36.046847    153.86134   -312048.31 
    1000    174.38918    162959.83    72.250592    72.250593    36.046831          120     17072.15    17932.965   -33907.352    481.87883   -1186.6193    -984.1336    72.250592    62.570849    36.046831    365.92091   -312047.73 
    1010    174.46529    162959.97    72.250613    72.250614    36.046842          120    17446.601    18424.439   -34315.429    271.15353   -716.88663   -1365.7403    72.250613    62.570867    36.046842    518.53708      -312047 
    1020    173.84148    162960.52    72.250694    72.250695    36.046882          120    17594.935    17964.217    -35221.62    359.84972   -853.16335   -1224.3675    72.250694    62.570937    36.046882    112.51083   -312045.11 
    1030    173.12371    162961.18    72.250792    72.250793    36.046931          120    17361.392     17550.05   -35030.933    577.71649   -587.80019    -1056.388    72.250792    62.571022    36.046931   -39.830332   -312043.16 
    1040     175.0362    162961.79    72.250883    72.250883    36.046976          120    17174.886    17442.918   -34854.649    683.09868   -736.84579   -903.21431    72.250883    62.571101    36.046976   -78.948642   -312046.35 
    1050    174.92237    162962.33    72.250962    72.250962    36.047016          120    17327.243    17393.674   -34657.739    829.13083   -1095.5131   -653.17415    72.250962    62.571169    36.047016     21.05935    -312045.9 
    1060    175.79595    162962.86    72.251041    72.251042    36.047055          120    17075.159    17430.345   -34017.803    1024.6524   -985.46047   -223.58162    72.251041    62.571238    36.047055    162.56682   -312047.67 
    1070    174.47347    162963.52    72.251139    72.251139    36.047104          120    17464.824    17507.786   -34097.711    986.95465   -1269.8616   -910.72975    72.251139    62.571322    36.047104    291.63291      -312045 
    1080    173.21448    162964.43    72.251273    72.251273    36.047171          120    17835.102    17700.579   -33961.397    522.96761   -1105.0374    -984.7338    72.251273    62.571438    36.047171    524.76125    -312043.1 
    1090    174.93247    162965.75    72.251468    72.251468    36.047268          120    17992.864    17666.026   -34018.596    644.37295   -1174.4915   -862.45048    72.251468    62.571607    36.047268     546.7649   -312047.21 
    1100    174.49454    162967.55    72.251733    72.251734      36.0474          120    18455.981      18095.5   -33825.236    540.76042   -1263.4354   -647.72636    72.251733    62.571837      36.0474     908.7484   -312046.22 
    1110    172.73511    162970.04    72.252101    72.252102    36.047584          120    18397.327     17890.28   -34405.583    647.37795   -903.01362   -512.84145    72.252101    62.572156    36.047584    627.34144   -312043.94 
    1120     172.2735    162972.97    72.252535    72.252536      36.0478          120    17685.151     17857.46   -35267.073    1087.0313    -1283.343   -1271.5229    72.252535    62.572531      36.0478    91.845787   -312044.17 
    1130    175.70275    162975.97    72.252978    72.252978    36.048021          120    17764.837    18101.166   -34679.142    678.54713   -1152.1249   -921.16182    72.252978    62.572915    36.048021    395.62041   -312051.72 
    1140    174.85448    162979.19    72.253453    72.253454    36.048259          120    17163.686    18152.773   -34356.159     570.4275   -1099.5125   -516.80519    72.253453    62.573327    36.048259     320.1003   -312051.78 
    1150    172.63641     162982.6    72.253958    72.253959     36.04851          120    17147.243     18071.02   -34512.769    1007.9761   -1154.2894   -852.97092    72.253958    62.573764     36.04851    235.16473   -312048.85 
    1160    172.53463    162986.13     72.25448    72.254481    36.048771          120    17627.568    18070.504   -34374.456     903.3905   -1360.9223   -943.62862     72.25448    62.574216    36.048771    441.20531   -312050.61 
    1170    173.25411     162989.9    72.255037    72.255038    36.049049          120    17584.973    17743.054   -34799.869    658.33685   -996.94789    -1192.677    72.255037    62.574698    36.049049    176.05292   -312053.87 
    1180    171.96193     162993.7    72.255598    72.255598    36.049328          120     17163.94    17183.252    -35149.53    399.15641   -421.38008   -1368.8258    72.255598    62.575184    36.049328   -267.44578   -312052.39 
    1190     172.0508    162997.14    72.256107    72.256108    36.049582          120    16954.183    16716.171   -35052.762    208.41581   -1267.9921   -1195.7011    72.256107    62.575625    36.049582   -460.80293   -312054.18 
    1200    170.35078    163000.06    72.256538    72.256539    36.049798          120    16632.901    16906.018    -35315.63    128.86865   -1614.2911    -858.1946    72.256538    62.575998    36.049798   -592.23731   -312052.77 
    1210    172.24164    163002.34    72.256875    72.256876    36.049966          120    16174.228    17049.685   -35433.829    732.97732   -1536.7273    -1065.552    72.256875     62.57629    36.049966   -736.63851   -312058.57 
    1220    170.06741    163003.93     72.25711    72.257111    36.050083          120    16784.751    17334.566   -35185.056    1173.8381   -1515.9211   -1126.6904     72.25711    62.576494    36.050083    -355.2464   -312056.24 
    1230    169.97663    163005.15     72.25729     72.25729    36.050173          120    16999.004    17831.096   -34878.029    1015.6456   -1451.2169   -851.78513     72.25729    62.576649    36.050173   -15.976373   -312057.81 
    1240    168.17773     163006.3     72.25746     72.25746    36.050257          120    17071.393    18065.463    -34938.98    1062.4126   -1288.8791   -440.29576     72.25746    62.576797    36.050257    65.958591   -312056.19 
    1250      168.093    163007.45     72.25763     72.25763    36.050342          120    17335.259    17405.077    -34913.98    826.89143   -1234.6367   -347.05614     72.25763    62.576944    36.050342   -57.881507   -312057.46 
    1260    168.68323     163008.5    72.257785    72.257785     36.05042          120    17047.547    17250.094   -35052.139    482.33403    -397.4997   -194.09728    72.257785    62.577078     36.05042   -251.49912   -312060.28 
    1270     168.2107    163009.32    72.257906    72.257906     36.05048          120    16890.646    17829.605   -34927.947    579.83933   -255.70518   -294.16808    72.257906    62.577183     36.05048   -69.231933   -312061.29 
    1280    166.84845     163010.1    72.258022    72.258022    36.050538          120    17465.755    18457.145   -34058.324    983.95006   -589.18703   -1132.9073    72.258022    62.577283    36.050538    621.52541   -312060.08 
    1290    167.88854    163011.35    72.258206    72.258206     36.05063          120     17421.74    18662.176   -34459.544     730.8283    -816.8363   -1283.0971    72.258206    62.577443     36.05063    541.45766   -312063.52 
    1300    167.43511    163013.06    72.258458    72.258459    36.050756          120    17559.065    18165.877   -34336.822    648.87588   -1531.9058   -982.26755    72.258458    62.577661    36.050756    462.70686   -312064.12 
    1310     167.3721    163015.09    72.258759    72.258759    36.050906          120    17556.829    17895.309   -35081.693    471.54265   -1929.3048   -1112.0117    72.258759    62.577922    36.050906    123.48168   -312065.03 
    1320     166.6629    163017.16    72.259065    72.259065    36.051058          120    16841.103    17485.529   -35085.334    290.26359    -1755.233   -1034.4336    72.259065    62.578186    36.051058   -252.90091   -312064.79 
    1330     165.1846    163018.95    72.259329     72.25933     36.05119          120    17088.386    16899.079    -35128.71    607.67787   -1853.6466   -770.39505    72.259329    62.578416     36.05119   -380.41512   -312062.71 
    1340    165.11083    163020.38    72.259541    72.259541    36.051296          120    17485.294    17315.741    -35135.01    666.66369    -1539.916   -933.28748    72.259541    62.578599    36.051296   -111.32503   -312063.33 
    1350    165.73473    163021.62    72.259724    72.259724    36.051387          120    17317.251    17171.602   -35115.886    936.49333   -1320.5525   -1005.2278    72.259724    62.578757    36.051387   -209.01095   -312065.11 
    1360    164.91544    163022.63    72.259873    72.259874    36.051462          120    16847.479    17358.371   -35024.931    966.56831   -1218.6543   -858.48995    72.259873    62.578887    36.051462   -273.02695   -312063.64 
    1370    166.38035    163023.38    72.259983    72.259984    36.051516          120    17067.472    17292.777   -34965.503    1221.1493   -1053.0413   -1106.2296    72.259983    62.578982    36.051516   -201.75119   -312066.77 
    1380     165.1422    163023.92    72.260063    72.260063    36.051556          120    16862.688    17129.408   -34305.288    1391.7128   -1147.3848   -1569.4401    72.260063    62.579051    36.051556   -104.39753   -312064.83 
    1390    166.35495    163024.33    72.260124    72.260125    36.051587          120    16621.809    17126.783   -34264.592    1407.9848   -1214.4034   -1488.4228    72.260124    62.579104    36.051587   -172.00002   -312067.13 
    1400    166.03852    163024.58     72.26016    72.260161    36.051605          120    16695.135    16982.119   -34506.229    1126.7137   -1404.1152   -1315.6585     72.26016    62.579135    36.051605   -276.32503   -312066.27 
    1410    165.31181    163024.61    72.260165    72.260166    36.051607          120    16899.136    17154.376   -33864.719    1088.2865   -1327.7558   -814.63108    72.260165     62.57914    36.051607    62.930893   -312064.52 
    1420    165.94398    163024.67    72.260175    72.260175    36.051612          120    17093.999    17457.783   -34154.412    1101.8867   -1766.3796    -455.2949    72.260175    62.579147    36.051612    132.45647   -312065.43 
    1430    166.59833    163024.84    72.260199      72.2602    36.051624          120    17078.238    17870.117     -34800.3    1166.2909   -1772.2707   -583.67239    72.260199    62.579169    36.051624    49.351614   -312065.87 
    1440    167.79852    163025.09    72.260236    72.260237    36.051643          120    17268.033    18485.859     -34472.6    1142.8458   -1511.0962   -503.98731    72.260236    62.579201    36.051643    427.09736   -312067.62 
    1450    168.12168    163025.66    72.260321    72.260322    36.051685          120    17205.128    17959.864   -34052.192    1004.6621   -1601.9824     -497.848    72.260321    62.579274    36.051685    370.93364    -312067.2 
    1460    166.78246    163026.59    72.260457    72.260458    36.051753          120    17467.795    17613.423   -33706.835    998.33422   -1511.4076    -638.9172    72.260457    62.579392    36.051753     458.1279   -312063.62 
    1470    168.59536    163027.89     72.26065    72.260651    36.051849          120    17520.149    17633.178    -33818.73    1075.4884   -1293.2315   -1223.7766     72.26065    62.579559    36.051849    444.86564   -312065.81 
    1480    167.37651    163029.55    72.260896    72.260896    36.051972          120    17691.691    17627.959   -34040.182    922.19152   -1476.0994   -1508.2821    72.260896    62.579772    36.051972    426.48958   -312062.27 
    1490    167.75552    163031.53    72.261188    72.261188    36.052117          120    17373.117    17619.178   -34661.599    758.20438   -1355.7137   -1171.7673    72.261188    62.580025    36.052117    110.23201   -312062.17 
    1500    168.11922    163033.53    72.261483    72.261484    36.052265          120    16896.507    17486.958   -35536.479    1057.5135   -1208.3181    -825.7084    72.261483    62.580281    36.052265   -384.33776   -312061.59 
    1510    168.78986    163035.16    72.261724    72.261725    36.052385          120    16692.558     17695.96   -35687.881    981.86645   -1102.4813   -1120.5804    72.261724     62.58049    36.052385   -433.12096   -312061.38 
    1520    168.82029    163036.34    72.261899    72.261899    36.052472          120    17055.786    18016.009    -36562.27    979.45937   -1213.2013   -1634.6282    72.261899    62.580641    36.052472   -496.82464   -312060.01 
    1530    169.15129    163037.09    72.262009    72.262009    36.052527          120    17654.563    18031.292   -35905.652    1037.6695   -1331.2582   -1253.8178    72.262009    62.580736    36.052527   -73.265652   -312059.13 
    1540     169.0977    163037.69    72.262097    72.262098    36.052571          120     17973.03    17361.956   -35808.738    930.36081   -1237.3076   -1057.7044    72.262097    62.580813    36.052571   -157.91758   -312057.87 
    1550    170.15694    163038.12    72.262161    72.262162    36.052603          120    17230.508    16506.223   -35222.053    698.23403   -1311.0333   -1057.2991    72.262161    62.580868    36.052603   -495.10737   -312058.44 
    1560    171.02118    163038.09    72.262156    72.262157    36.052601          120    16993.933    16214.277   -35395.516    762.26026   -1241.9098   -1026.8033    72.262156    62.580864    36.052601   -729.10194   -312058.48 
    1570    171.74178     163037.5     72.26207    72.262071    36.052558          120    17618.744    17258.348   -34193.763    680.92181   -1002.5682   -740.56337     72.26207    62.580789    36.052558    227.77656   -312058.58 
    1580    173.09823    163037.11    72.262012    72.262012    36.052528          120    17914.667    17763.335   -33284.731    282.45201     -986.538   -970.80842    72.262012    62.580738    36.052528     797.7569   -312059.64 
    1590    171.91682    163037.39    72.262053    72.262054    36.052549          120    17548.734    17926.254   -33278.554    356.10962   -1295.2629   -746.91796    72.262053    62.580775    36.052549    732.14474   -312055.53 
    1600    171.95353    163038.28    72.262185    72.262185    36.052615          120    17103.788    17964.888   -34148.391    389.44819    -1123.748   -938.99435    72.262185    62.580888    36.052615    306.76155   -312054.59 
    1610      172.603    163039.41    72.262352    72.262353    36.052698          120    17081.996    17361.446   -34895.105    673.14725   -876.46744   -1212.0414    72.262352    62.581033    36.052698   -150.55461   -312054.77 
    1620    171.83599    163040.35    72.262491    72.262491    36.052767          120    16682.449    16624.771   -35511.194    618.84809   -1240.5568   -1295.2048    72.262491    62.581153    36.052767   -734.65816   -312052.17 
    1630     172.9914    163040.63    72.262533    72.262533    36.052788          120    16819.768    16528.011   -35844.094    931.65793   -1232.5662   -1236.7978    72.262533     62.58119    36.052788   -832.10491    -312053.7 
    1640    172.63895    163040.23    72.262473    72.262474    36.052759          120    17121.881    17222.294    -34951.61    872.59445   -1391.4632   -563.56537    72.262473    62.581138    36.052759   -202.47842   -312051.68 
    1650    173.15299    163039.63    72.262385    72.262385    36.052715          120    17428.213    17949.108   -34770.187     714.2578   -1691.8616   -729.88867    72.262385    62.581062    36.052715    202.37783   -312051.89 
    1660    173.13547    163039.25    72.262329     72.26233    36.052687          120    17711.825    18107.214   -34175.726    799.71478   -1584.4301   -1061.8906    72.262329    62.581013    36.052687    547.77105   -312051.65 
    1670    174.57834    163039.36    72.262344    72.262345    36.052694          120    17646.053    17937.943   -33929.778    1097.7318   -1968.9573   -996.30644    72.262344    62.581026    36.052694    551.40574   -312053.91 
    1680    173.82692    163039.92    72.262428    72.262428    36.052736          120    17513.868    17713.974   -34583.194    708.38008   -1769.5911   -1319.0704    72.262428    62.581099    36.052736    214.88278    -312052.1 
    1690    174.33217    163040.65    72.262535    72.262536    36.052789          120    17451.883    17293.886   -35594.782    1046.1347    -1787.791   -1794.6039    72.262535    62.581192    36.052789   -283.00441   -312053.23 
    1700    173.50892    163041.13    72.262607    72.262607    36.052825          120    17924.525    17236.632   -36024.965    727.84572   -1645.6595   -1319.5145    72.262607    62.581254    36.052825   -287.93619   -312051.98 
    1710    174.35026    163041.38    72.262643    72.262643    36.052843          120    17730.405    17929.914   -35608.723    628.77901   -1301.4915   -590.57599    72.262643    62.581285    36.052843    17.198835   -312053.86 
    1720    175.22052    163041.62    72.262679     72.26268    36.052861          120    17664.303    17790.979   -34825.007     506.8539    -1475.419    -580.1719    72.262679    62.581316    36.052861     210.0918   -312055.78 
    1730    173.72268    163042.05    72.262742    72.262743    36.052893          120    17714.653    17448.944   -33897.531    411.98434   -1539.8836    -732.3254    72.262742    62.581371    36.052893    422.02185   -312053.55 
    1740    173.93162    163042.85     72.26286    72.262861    36.052952          120    17631.444     18131.81    -33649.88    768.76783   -1962.3005   -621.70713     72.26286    62.581473    36.052952    704.45804   -312054.72 
    1750    174.60163    163044.22    72.263063    72.263064    36.053053          120    17813.656    18124.632   -33746.081     835.9874   -1505.8125   -139.44834    72.263063    62.581649    36.053053    730.73566   -312056.63 
    1760     173.0203    163046.22    72.263357    72.263358      36.0532          120    17509.811    17750.144   -33433.838    674.85106   -1638.5496   -315.82204    72.263357    62.581904      36.0532     608.7055   -312054.24 
    1770    173.50482    163048.69    72.263723    72.263724    36.053382          120     17304.13    17795.239   -34073.824    837.35498   -1623.4272   -310.03273    72.263723    62.582221    36.053382    341.84844   -312056.55 
    1780    171.81461     163051.4    72.264123    72.264124    36.053582          120    17153.593     17812.52   -35196.331    1055.9721    -1570.723   -517.64147    72.264123    62.582567    36.053582   -76.739471   -312054.44 
    1790    172.44537    163053.95      72.2645      72.2645     36.05377          120    17229.593    17231.751   -35939.906     1310.652   -1472.1767   -1164.8067      72.2645    62.582893     36.05377   -492.85392   -312057.15 
    1800    172.09058    163056.04    72.264809    72.264809    36.053924          120    17721.232     17455.92   -35662.903    1467.7501   -1215.2392    -1125.518    72.264809    62.583161    36.053924   -161.91686   -312058.03 
    1810    171.18219     163057.9    72.265083    72.265084    36.054061          120    17835.477    17380.247   -35207.204    821.47222   -1157.5525   -724.33166    72.265083    62.583399    36.054061    2.8401025   -312057.27 
    1820    169.88589    163059.69    72.265348    72.265349    36.054193          120    18046.309    17469.629   -35178.829    1051.5636    -950.8021   -796.23874    72.265348    62.583628    36.054193    112.36964   -312056.14 
    1830    169.63835    163061.55    72.265623    72.265623     36.05433          120    17891.895    17957.568   -34795.497    953.95876   -882.84282   -326.38844    72.265623    62.583866     36.05433    351.32206      -312057 
    1840    171.16485    163063.65    72.265933    72.265933    36.054485          120    17326.968    18066.171   -34710.108    791.11236   -1418.2207   -38.816011    72.265933    62.584134    36.054485    227.67686    -312061.4 
    1850    169.34796    163065.88    72.266263    72.266263    36.054649          120    17222.171    17202.788   -34709.303    916.90611   -1372.3858    -181.4542    72.266263     62.58442    36.054649   -94.781415   -312059.62 
    1860    170.39092    163067.97    72.266571    72.266571    36.054803          120    17110.768    17004.685   -35383.077    740.48875   -1590.5334    -612.0195    72.266571    62.584687    36.054803   -422.54125   -312063.36 
    1870    171.95116    163069.64    72.266818    72.266818    36.054926          120    17034.963     17145.32   -35546.253    134.18704   -1767.7863   -1464.9656    72.266818    62.584901    36.054926   -455.32364   -312067.23 
    1880    168.94588    163070.87    72.266999       72.267    36.055017          120    17156.386     17364.37   -35559.937    312.83418   -1926.7757   -1719.5289    72.266999    62.585058    36.055017   -346.39329   -312062.91 
    1890    167.92743    163071.75     72.26713     72.26713    36.055082          120    17317.938    17805.711    -35529.21    286.25311   -1456.7219   -1540.9869     72.26713    62.585171    36.055082   -135.18706   -312062.28 
    1900     168.5295    163072.49    72.267239    72.267239    36.055136          120    17665.724    17968.548   -35218.948    570.30884   -1249.0582   -1475.8798    72.267239    62.585265    36.055136    138.44169    -312065.1 
    1910    168.18437    163073.31    72.267361    72.267361    36.055197          120    17813.662    17802.192   -35060.833    584.54563   -1678.5192   -1384.7927    72.267361    62.585371    36.055197    185.00712    -312065.9 
    1920    167.09685    163074.25    72.267499      72.2675    36.055266          120    17811.276    17161.609   -35118.395    483.81188   -1599.7313   -1087.8993    72.267499    62.585491    36.055266   -48.503221   -312064.91 
    1930    166.78519    163075.16    72.267633    72.267634    36.055333          120    18086.149    17133.706   -34764.598    239.08357   -1340.5658   -1111.7335    72.267633    62.585607    36.055333    151.75249   -312065.52 
    1940    167.14485    163076.16    72.267781    72.267782    36.055407          120    18380.457    17305.554   -34911.748    20.603089   -1096.2191   -570.64735    72.267781    62.585735    36.055407    258.08776   -312067.78 
    1950    166.83055    163077.35    72.267957    72.267958    36.055495          120     18115.68    17301.228    -34892.55     716.3692   -1081.0418   -767.32173    72.267957    62.585888    36.055495    174.78592   -312067.63 
    1960    166.37859    163078.65    72.268149     72.26815    36.055591          120    17569.193    17236.029   -35106.763    804.04531   -1479.2649   -938.77983    72.268149    62.586054    36.055591   -100.51377   -312067.62 
    1970    166.10839    163079.82    72.268322    72.268322    36.055677          120    17260.977    17225.535   -35511.882    1065.3969   -2031.7232    -1172.172    72.268322    62.586203    36.055677   -341.78987    -312067.7 
    1980    165.92998    163080.68    72.268449    72.268449     36.05574          120     17624.33    17332.008   -35607.539    904.30291   -1643.2465   -1247.0343    72.268449    62.586313     36.05574   -217.06669   -312068.18 
    1990    166.40571    163081.28    72.268537    72.268537    36.055784          120    18141.502    16631.772   -35938.912    510.90103   -1547.5637   -1092.9966    72.268537    62.586389    36.055784   -388.54572   -312069.69 
    2000    167.01394    163081.56    72.268578    72.268579    36.055804          120    18227.494    16329.447   -34767.802    837.09662    -1490.566   -1479.3762    72.268578    62.586425    36.055804   -70.287002   -312070.71 
    2010    167.64626    163081.76    72.268609    72.268609     36.05582          120    18141.801    16942.923   -34618.147    943.02409   -1731.1111   -1392.6082    72.268609    62.586452     36.05582    155.52571   -312071.81 
    2020    166.28982     163082.1    72.268658    72.268659    36.055845          120    17494.848    17710.475    -34897.24    1068.3615    -1844.334   -1320.4812    72.268658    62.586495    36.055845    102.69406   -312069.14 
    2030     166.2875    163082.49    72.268716    72.268717    36.055873          120    16551.372    17408.385   -34845.749    1067.0359   -1546.8217    -1194.537    72.268716    62.586545    36.055873   -295.33059   -312069.29 
    2040    166.09629     163082.6    72.268732    72.268733    36.055881          120    16796.999    17004.178   -35931.552    1027.3335   -1706.9458   -997.99457    72.268732    62.586558    36.055881   -710.12502   -312068.59 
    2050    167.12449    163082.05    72.268651    72.268652    36.055841          120    16767.708    16542.207   -36644.827    879.85085   -1714.4822   -879.10776    72.268651    62.586489    36.055841   -1111.6371   -312070.29 
    2060    167.17139    163080.57    72.268432    72.268433    36.055732          120    16965.391    16021.413   -36072.386    641.05181   -1993.6302   -593.86972    72.268432    62.586299    36.055732   -1028.5276   -312069.79 
    2070     165.5029    163078.17    72.268078    72.268079    36.055555          120    17025.742    15975.212   -36168.984    492.45001   -1671.5724   -599.67864    72.268078    62.585992    36.055555   -1056.0098      -312066 
    2080    167.25623    163074.86    72.267589    72.267589    36.055311          120    16440.445    16289.207   -35985.687    533.36017   -1823.6049   -931.51926    72.267589    62.585569    36.055311   -1085.3449   -312068.54 
    2090    167.03311    163070.72    72.266978    72.266979    36.055006          120    16723.293    16955.584   -35013.578    565.25634   -2127.0313    -990.9908    72.266978    62.585039    36.055006   -444.90048   -312067.37 
    2100    168.22377    163066.27     72.26632     72.26632    36.054678          120     16614.29    17297.477   -34660.747    530.26119   -1954.5688   -856.51279     72.26632     62.58447    36.054678   -249.66017   -312069.21 
    2110    168.07093    163061.73    72.265649     72.26565    36.054343          120    16550.879    17162.294   -33962.331    949.72971   -1814.3814   -1067.3796    72.265649    62.583888    36.054343   -83.052647    -312067.8 
    2120    168.14492    163057.24    72.264987    72.264987    36.054013          120    17295.617    16946.325   -33928.093    796.26182   -2080.3534   -1044.8214    72.264987    62.583315    36.054013     104.6161   -312066.57 
    2130    168.48592    163052.92    72.264348    72.264349    36.053694          120    17743.389    16503.392   -34629.766    392.66587   -1732.9366   -1170.8638    72.264348    62.582762    36.053694   -127.66183   -312066.09 
    2140    169.87155    163048.61    72.263711    72.263712    36.053376          120    17590.011    16484.832   -34868.701    661.16109   -1375.5751   -1169.2647    72.263711     62.58221    36.053376   -264.61968   -312067.34 
    2150    169.79348    163044.19    72.263058    72.263058     36.05305          120    16907.403    16754.715   -34438.874    594.44263   -1771.7356   -656.74009    72.263058    62.581644     36.05305   -258.91862   -312065.47 
    2160      170.279    163039.63    72.262384    72.262385    36.052714          120    16714.004    16982.332   -34501.833      1092.51   -1542.1953   -822.84368    72.262384    62.581061    36.052714   -268.49917   -312065.23 
    2170    169.91011    163034.97    72.261697    72.261697    36.052371          120    17019.894    17174.085   -34234.898    1211.6254   -959.07205   -1135.6963    72.261697    62.580466    36.052371   -13.639674   -312063.35 
    2180    169.13553    163030.43    72.261026    72.261026    36.052036          120    17490.631        17358   -33943.035    561.26703   -1223.8237   -1241.5476    72.261026    62.579885    36.052036    301.86531   -312060.23 
    2190    171.49392    163026.32    72.260418    72.260419    36.051733          120    18479.046    17646.472   -32959.881    673.54275   -1162.2553   -1014.1222    72.260418    62.579358    36.051733    1055.2123   -312063.98 
    2200    171.36695    163023.23    72.259961    72.259962    36.051505          120    18684.966    17864.103   -33047.005    738.97231   -1184.9364   -1165.8322    72.259961    62.578963    36.051505    1167.3544   -312062.36 
    2210    171.14641    163021.19    72.259659     72.25966    36.051355          120    17927.869    17682.473    -34442.92    920.63544   -1928.8479   -1057.3488    72.259659    62.578701    36.051355    389.14069   -312060.81 
    2220    172.28352    163019.61    72.259427    72.259428    36.051239          120    17383.859    18104.133   -34772.271    986.15457   -2291.0008   -803.47572    72.259427      62.5785    36.051239    238.57366   -312061.52 
    2230    172.91127     163018.3    72.259233    72.259234    36.051142          120    17849.228    17940.963   -35069.643     700.7615   -2612.0137   -1205.2551    72.259233    62.578333    36.051142    240.18282   -312062.09 
    2240    172.82772    163017.28    72.259082    72.259083    36.051067          120    18326.337    17672.999   -34533.583    852.91074   -2659.8001   -1204.9848    72.259082    62.578201    36.051067    488.58435      -312061 
    2250    173.56403    163016.71    72.258998    72.258999    36.051025          120    18625.794    18060.072   -34607.693    528.91911   -2401.6251   -1206.3718    72.258998    62.578129    36.051025    692.72448   -312061.16 
    2260      173.011    163016.82    72.259014    72.259015    36.051033          120    18312.598    18688.295   -33807.442    518.27953   -2126.8868   -830.84204    72.259014    62.578143    36.051033    1064.4838   -312059.44 
[...]
   99200    170.92301    163305.01     72.30157    72.301571    36.072265          120    17458.213    17909.564   -35069.477    232.95074   -2738.2975   -1263.0798     72.30157    62.614997    36.072265    99.433515   -312095.22 
   99210     171.6961    163308.19     72.30204    72.302041    36.072499          120    18223.402    17808.559   -35603.618    50.292391   -2357.5174   -742.71163     72.30204    62.615404    36.072499    142.78099   -312096.17 
   99220     170.7184    163311.49    72.302527    72.302527    36.072742          120    18225.969    18042.777   -35933.999   -50.316652   -2333.5958    -502.6892    72.302527    62.615826    36.072742    111.58222   -312094.11 
   99230    171.47183    163314.87    72.303026    72.303026    36.072991          120    18016.629    17431.073   -35516.825    158.86489   -2938.4679   -754.82132    72.303026    62.616258    36.072991    -23.04121   -312095.47 
   99240    172.02745    163318.26    72.303526    72.303526     36.07324          120    18071.097    17906.811   -35027.034    385.81454   -3017.7257   -697.85768    72.303526    62.616691     36.07324    316.95814   -312096.61 
   99250    170.50343    163321.91    72.304064    72.304065    36.073509          120    18317.637    18606.359   -35433.859    314.35019   -3035.3552   -422.87629    72.304064    62.617157    36.073509    496.71225   -312093.58 
   99260     171.6656    163325.92    72.304656    72.304657    36.073804          120    17577.928    17834.938   -35864.768    173.68393   -2565.5827   -460.56095    72.304656     62.61767    36.073804   -150.63398   -312096.61 
   99270    172.38112    163329.82    72.305232    72.305232    36.074091          120    16718.365    17164.996   -35195.944    179.44778   -2455.2726   -458.54257    72.305232    62.618168    36.074091   -437.52769   -312097.71 
   99280    171.79282    163333.33    72.305749     72.30575     36.07435          120    16640.214    17118.805   -34952.883    14.532022   -2393.4935   -382.10034    72.305749    62.618616     36.07435   -397.95432   -312096.66 
   99290    170.75708     163336.5    72.306218    72.306219    36.074584          120    17548.313    17100.371   -34407.454   -93.049019   -2432.9773   -325.17567    72.306218    62.619022    36.074584    80.410287      -312095 
   99300    172.15694    163339.69    72.306688    72.306688    36.074818          120    17267.614     17004.12   -34555.148    -142.5928   -2252.7608   -269.48067    72.306688    62.619429    36.074818   -94.471263   -312098.28 
   99310    171.39298    163342.78    72.307144    72.307144    36.075045          120     16599.98    17074.357   -35132.755   -285.58654   -2036.5493   -196.91493    72.307144    62.619824    36.075045   -486.13899   -312097.18 
   99320    172.11975    163345.46     72.30754     72.30754    36.075243          120    16798.969    17081.644    -35217.91   -14.106563   -2529.0812    -660.8242     72.30754    62.620167    36.075243   -445.76581   -312098.71 
   99330    171.47087    163347.76    72.307879     72.30788    36.075412          120    17254.519    17353.574   -35461.804    315.23351   -2852.9686   -1299.6853    72.307879    62.620461    36.075412   -284.57028   -312097.52 
   99340    169.68283    163349.74    72.308171    72.308171    36.075558          120    17099.959    16849.097   -36060.967    449.53475   -2945.0107   -1451.9863    72.308171    62.620713    36.075558   -703.97011   -312094.58 
   99350    170.85411    163351.09     72.30837    72.308371    36.075657          120    17513.386    16811.305   -36509.761    35.058066   -3207.4543   -850.85077     72.30837    62.620886    36.075657   -728.35691   -312097.53 
   99360    171.16917    163351.75    72.308468    72.308469    36.075706          120    17144.151    17070.931   -36432.341    79.062747   -2753.2678   -676.58164    72.308468    62.620971    36.075706   -739.08619   -312098.65 
   99370     169.5898    163351.73    72.308465    72.308466    36.075705          120    16928.958    17289.938   -36517.581    130.20957   -2393.2379   -942.81815    72.308465    62.620968    36.075705   -766.22826   -312095.83 
   99380    172.21595    163351.02    72.308359     72.30836    36.075652          120    16844.608    17568.175   -36128.366   -100.29555   -2719.0887   -840.16418    72.308359    62.620877    36.075652   -571.86091    -312101.4 
   99390    169.77428     163349.8     72.30818    72.308181    36.075563          120    16818.404    17951.797   -35197.498   -29.776108   -3136.5861   -810.91976     72.30818    62.620722    36.075563   -142.43216   -312096.94 
   99400    170.38591    163348.47    72.307983    72.307984    36.075464          120    17694.312    18188.351   -35326.959    8.3796164   -3211.4586   -933.04494    72.307983    62.620551    36.075464    185.23483   -312098.54 
   99410    168.46004    163347.27    72.307806    72.307807    36.075376          120    17782.996     17681.28   -35201.434   -12.601701   -2185.6352   -936.79934    72.307806    62.620398    36.075376    87.613667   -312095.16 
   99420    170.75636    163346.09    72.307633    72.307633    36.075289          120    16873.431    17235.504     -35453.2    185.71301   -2284.7772   -1224.1314    72.307633    62.620247    36.075289   -448.08833   -312100.03 
   99430    171.08737    163344.56    72.307407    72.307408    36.075177          120    16804.158    17674.702    -35717.87    383.46111    -1913.048   -1422.0963    72.307407    62.620052    36.075177   -413.00338    -312101.2 
   99440    170.03199    163342.67    72.307128    72.307129    36.075038          120    16984.035    18091.402   -35612.892    111.20178    -2637.539   -418.53629    72.307128     62.61981    36.075038   -179.15188   -312099.44 
   99450    170.92733    163340.62    72.306826    72.306826    36.074887          120    17965.348     17956.29   -35394.959      72.5638   -3278.5189   -90.034039    72.306826    62.619549    36.074887    175.55925   -312101.39 
   99460    169.93641    163338.76     72.30655    72.306551    36.074749          120    18837.706    17861.775   -34776.413    -39.49671    -2640.073   -787.74139     72.30655     62.61931    36.074749     641.0228   -312099.56 
   99470    169.02916    163337.41    72.306352    72.306353    36.074651          120    18556.624    17660.674   -34947.157   -266.98548    -2890.903   -941.46824    72.306352    62.619139    36.074651    423.38046   -312098.34 
   99480    168.72856    163336.46    72.306211    72.306212     36.07458          120    17883.895    17812.071    -35547.63   -74.567582   -3504.9279   -1542.5344    72.306211    62.619016     36.07458    49.445571   -312098.03 
   99490    170.16778    163335.52    72.306074    72.306074    36.074512          120    17289.389    17069.533   -36088.142    576.87245   -3278.7257   -1555.0112    72.306074    62.618897    36.074512   -576.40682   -312100.99 
   99500    168.32842    163334.13    72.305868    72.305869    36.074409          120     17205.75    17151.668   -35906.563    334.89756    -2751.267   -1639.7192    72.305868     62.61872    36.074409   -516.38168   -312097.36 
   99510     169.5217    163332.28    72.305594    72.305595    36.074272          120    17355.525    17631.149   -36062.059    141.77968   -2719.5377   -1335.4154    72.305594    62.618482    36.074272   -358.46146   -312099.85 
   99520    171.40886    163330.04    72.305265    72.305265    36.074108          120    17164.762    17572.946   -36385.078   -295.80671   -2576.9469   -1181.8329    72.305265    62.618197    36.074108   -549.12327   -312103.71 
   99530    169.20328    163327.38    72.304872    72.304873    36.073912          120    17627.104     17674.95   -35827.397   -664.49874   -2698.6611   -970.60527    72.304872    62.617857    36.073912   -175.11441   -312099.33 
   99540    170.06283    163324.55    72.304455    72.304455    36.073704          120    17439.248     17648.17   -35331.439   -399.70767   -2232.1988   -811.95639    72.304455    62.617495    36.073704   -81.340357   -312101.28 
   99550    169.84706    163321.61     72.30402    72.304021    36.073487          120    17014.795    17197.504    -35214.45   -50.297529   -2582.5284   -953.62868     72.30402    62.617119    36.073487   -334.05009   -312101.05 
   99560    170.78705    163318.39    72.303545    72.303546     36.07325          120    17055.583    17502.924   -35631.419    294.47578   -2481.0627   -596.86909    72.303545    62.616707     36.07325   -357.63699   -312102.49 
   99570    169.56143    163314.85    72.303022    72.303023    36.072989          120    17435.227    17573.238   -36289.236    523.80636   -2547.8466   -762.20001    72.303022    62.616255    36.072989   -426.92374   -312100.12 
   99580    168.59592    163310.95    72.302447    72.302447    36.072702          120    17971.984     17230.66   -35583.202    424.48871   -2706.9408   -315.99858    72.302447    62.615756    36.072702   -126.85292   -312097.92 
   99590    170.17442    163306.93    72.301854    72.301855    36.072407          120    17741.124    17797.533   -34760.328     205.0742   -2668.8145    123.16471    72.301854    62.615243    36.072407    259.44294   -312101.16 
   99600    168.95162    163303.12    72.301291    72.301291    36.072125          120    18381.585    17617.449   -35696.724    25.405926   -2204.4682   -276.13367    72.301291    62.614755    36.072125    100.76987   -312099.05 
   99610    169.62684    163299.46    72.300752    72.300752    36.071856          120    18341.645     18373.04   -35412.356   -6.9070196   -1618.8125   -746.92229    72.300752    62.614289    36.071856    434.10961   -312100.37 
   99620    169.41869    163296.18    72.300268    72.300268    36.071615          120    17777.293    18357.621   -34878.307    448.32438   -2428.7376   -1043.1271    72.300268    62.613869    36.071615    418.86918   -312099.72 
   99630    170.40575    163293.26    72.299836    72.299837    36.071399          120    17674.142     18008.26   -35292.815    310.71117   -2498.4599   -1246.3284    72.299836    62.613495    36.071399    129.86241   -312101.46 
   99640     169.5663    163290.48    72.299426    72.299426    36.071195          120    17863.381    18278.231   -35512.144   -4.4184321   -2204.9619   -1126.3179    72.299426     62.61314    36.071195    209.82269   -312100.16 
   99650    170.27245    163287.96    72.299054    72.299054    36.071009          120    18816.417    18189.206   -34550.111    -150.8712   -2102.2619   -827.05548    72.299054    62.612818    36.071009    818.50388   -312100.72 
   99660     169.8127    163286.15    72.298787    72.298787    36.070876          120    18994.263    18470.295   -34390.326   -271.48626   -2378.4271   -524.61241    72.298787    62.612587    36.070876    1024.7442   -312099.41 
   99670    167.81171    163285.25    72.298654    72.298655     36.07081          120    18280.566    18677.931   -34328.165    275.43602   -2619.8252   -770.99165    72.298654    62.612472     36.07081     876.7775   -312096.02 
   99680    169.89069    163285.11    72.298634    72.298634      36.0708          120    17631.355    18713.319   -35069.321     537.5151   -2844.1889   -413.50351    72.298634    62.612454      36.0708    425.11773   -312099.56 
   99690    171.19997     163285.4    72.298676    72.298676    36.070821          120    17619.018    18374.556   -34937.228    516.53568   -2868.8699   -135.62082    72.298676     62.61249    36.070821    352.11525   -312101.66 
   99700    171.12493    163285.98    72.298762    72.298762    36.070864          120    17385.948    18088.227   -35204.625    250.41756   -3070.0392   -410.80845    72.298762    62.612565    36.070864    89.850045   -312101.51 
   99710    170.05096    163286.67    72.298863    72.298864    36.070914          120    17044.558    17539.099   -34829.627   -39.803421   -3016.4981   -902.10753    72.298863    62.612653    36.070914   -81.989951   -312099.13 
   99720    170.51377    163287.32    72.298959     72.29896    36.070962          120    17366.629    17522.769   -35044.773   -256.72614   -2540.9018   -844.66439    72.298959    62.612736    36.070962   -51.791567   -312099.87 
   99730    171.92346    163287.88    72.299043    72.299044    36.071004          120    17454.067    17940.875   -35729.039    125.36355   -2087.3423   -1081.4699    72.299043    62.612809    36.071004   -111.36583   -312102.14 
   99740    169.20838    163288.43    72.299123    72.299124    36.071044          120    18189.059    18126.021   -34423.964     33.12782   -1918.8868   -730.56195    72.299123    62.612878    36.071044    630.37185   -312095.99 
   99750     171.2316    163289.48    72.299279    72.299279    36.071122          120    18521.004    18425.542   -34749.462    197.25636   -2426.1294    -670.7942    72.299279    62.613013    36.071122    732.36144   -312099.03 
   99760    171.27172     163291.2    72.299532    72.299533    36.071248          120    18336.205    18346.411   -35239.281    144.43723   -3180.4679   -828.06563    72.299532    62.613232    36.071248    481.11184   -312099.24 
   99770    170.72153    163293.29    72.299841    72.299841    36.071402          120    17545.514    17540.292   -36289.503    471.21224   -3295.5974   -781.64491    72.299841      62.6135    36.071402   -401.23239   -312097.62 
   99780    170.50578    163295.11     72.30011     72.30011    36.071536          120    17844.129     17336.11   -35901.654    407.87746    -2829.607   -589.15257     72.30011    62.613733    36.071536   -240.47202   -312096.59 
   99790    171.29116    163296.73    72.300349    72.300349    36.071655          120    18479.103    17700.535   -35529.053     621.5198   -3252.4736    -202.5613    72.300349    62.613939    36.071655     216.8615   -312096.66 
   99800    171.41481     163298.5    72.300609     72.30061    36.071785          120    18539.495    17563.439   -35261.207    336.29475   -2978.4523   -936.02052    72.300609    62.614165    36.071785    280.57542   -312096.78 
   99810    172.01256    163300.53     72.30091     72.30091    36.071935          120    18579.006    17942.286   -35239.427    618.26578   -3002.8754   -473.06609     72.30091    62.614425    36.071935    427.28842   -312097.24 
   99820    170.56308    163302.92    72.301262    72.301263    36.072111          120    17993.756    18248.762   -35683.817    581.00036   -2773.3034    -171.8549    72.301262     62.61473    36.072111    186.23406   -312093.86 
   99830    172.01054     163305.5    72.301643    72.301644    36.072301          120    17848.833    17715.841   -34952.666    130.81772   -2582.0605   -985.29699    72.301643     62.61506    36.072301     204.0029    -312096.8 
   99840     171.8168    163308.26    72.302051    72.302051    36.072504          120    18144.813    18078.557    -35496.02    142.07303   -2219.8529   -1429.6294    72.302051    62.615413    36.072504    242.45016    -312096.1 
   99850    171.94412    163311.27    72.302495    72.302495    36.072726          120    17966.731    18514.545   -34987.358   -117.37706   -2308.2759   -1496.6317    72.302495    62.615798    36.072726    497.97275   -312096.83 
   99860    171.76621    163314.69       72.303       72.303    36.072978          120    17796.074    18435.133   -35013.441   -97.179346    -2609.668   -1188.2785       72.303    62.616235    36.072978    405.92222   -312096.02 
   99870    172.44397    163318.47    72.303557    72.303557    36.073256          120    17690.756    18304.791   -35658.034    5.6130066   -2291.4918   -751.47723    72.303557    62.616718    36.073256     112.5044   -312097.42 
   99880    170.77751    163322.34    72.304128    72.304128    36.073541          120    17578.343    17964.459   -35975.153    73.357324   -2474.7769   -882.69215    72.304128    62.617212    36.073541   -144.11713   -312094.42 
   99890    171.99752    163326.09    72.304681    72.304682    36.073817          120     17425.27    18056.651   -35576.407    56.510926   -2362.2988   -924.77851    72.304681    62.617691    36.073817   -31.495188   -312096.63 
   99900    170.91056     163329.8    72.305229    72.305229     36.07409          120    17493.727    17956.221   -35050.774   -337.66899   -2144.2933   -1103.2732    72.305229    62.618165     36.07409    133.05802   -312095.07 
   99910     171.9453    163333.55    72.305783    72.305783    36.074366          120    17125.112    17197.899   -35705.955   -443.74174   -2109.8855    -1092.778    72.305783    62.618645    36.074366   -460.98125   -312096.87 
   99920    170.33178     163336.9    72.306276    72.306277    36.074613          120    16859.784    16774.486   -36187.714    241.04918   -2174.8748   -20.317847    72.306276    62.619073    36.074613   -851.14783   -312094.34 
   99930    171.02735    163339.48    72.306657    72.306658    36.074803          120    17089.414    16896.951   -36070.456    411.65718   -2808.5856    78.525386    72.306657    62.619403    36.074803   -694.69694   -312096.36 
   99940    170.84573    163341.43    72.306945    72.306945    36.074946          120    17220.274    17101.746   -35548.047   -72.479633   -2407.9915   -282.95583    72.306945    62.619652    36.074946    -408.6756    -312096.1 
   99950    171.78292    163342.98    72.307174    72.307175    36.075061          120    17620.799    17339.577   -35999.439   -329.78156   -2376.5865   -289.92614    72.307174     62.61985    36.075061   -346.35445      -312098 
   99960    171.98547    163344.23    72.307358    72.307359    36.075152          120    17916.898    17149.139   -35723.561   -661.65508   -1939.4971   -604.23054    72.307358     62.62001    36.075152   -219.17448    -312099.3 
   99970    169.84026    163345.25    72.307509    72.307509    36.075228          120    17529.776    17254.075   -36062.289    81.176442   -2461.7042    -980.6603    72.307509     62.62014    36.075228   -426.14611   -312095.12 
   99980    171.79254    163345.86    72.307599      72.3076    36.075273          120    17271.846    16831.183   -36299.977    473.86992   -2882.6268   -1359.7289    72.307599    62.620218    36.075273   -732.31584   -312099.51 
   99990    170.90518    163345.84    72.307596    72.307597    36.075271          120    17344.059    16677.147   -35629.355    728.66265   -2250.6773   -1030.0818    72.307596    62.620216    36.075271   -536.04969   -312098.63 
  100000    169.01499    163345.34    72.307521    72.307522    36.075234          120     17381.67    17546.776   -35426.494    539.75404   -2077.2729   -1047.8769    72.307521    62.620151    36.075234   -166.01588   -312095.64 
Loop time of 29101.7 on 1 procs for 100000 steps with 14848 atoms

Performance: 0.297 ns/day, 80.838 hours/ns, 3.436 timesteps/s
98.8% CPU use with 1 MPI tasks x no OpenMP threads

MPI task timing breakdown:
Section |  min time  |  avg time  |  max time  |%varavg| %total
---------------------------------------------------------------
Pair    | 24684      | 24684      | 24684      |   0.0 | 84.82
Bond    | 0.021187   | 0.021187   | 0.021187   |   0.0 |  0.00
Kspace  | 1102.9     | 1102.9     | 1102.9     |   0.0 |  3.79
Neigh   | 2634.5     | 2634.5     | 2634.5     |   0.0 |  9.05
Comm    | 39.269     | 39.269     | 39.269     |   0.0 |  0.13
Output  | 1.0585     | 1.0585     | 1.0585     |   0.0 |  0.00
Modify  | 629.19     | 629.19     | 629.19     |   0.0 |  2.16
Other   |            | 10.78      |            |       |  0.04

Nlocal:    14848 ave 14848 max 14848 min
Histogram: 1 0 0 0 0 0 0 0 0 0
Nghost:    46817 ave 46817 max 46817 min
Histogram: 1 0 0 0 0 0 0 0 0 0
Neighs:    1.00744e+07 ave 1.00744e+07 max 1.00744e+07 min
Histogram: 1 0 0 0 0 0 0 0 0 0

Total # of neighbors = 10074397
Ave neighs/atom = 678.502
Ave special neighs/atom = 0
Neighbor list builds = 9509
Dangerous builds = 0
 
All done!
Total wall time: 8:09:59
