LAMMPS (16 Mar 2018)
Reading data file ...
  triclinic box = (0 0 0) to (9.208 7.97436 18.376) with tilt (-4.604 0 0)
  1 by 1 by 1 MPI processor grid
  reading atoms ...
  116 atoms
Finding 1-2 1-3 1-4 neighbors ...
  special bond factors lj:   0          0          0         
  special bond factors coul: 0          0          0         
  0 = max # of 1-2 neighbors
  0 = max # of 1-3 neighbors
  0 = max # of 1-4 neighbors
  1 = max # of special neighbors
Replicating atoms ...
  triclinic box = (0 0 0) to (73.664 63.7949 36.752) with tilt (-36.832 0 0)
  1 by 1 by 1 MPI processor grid
  14848 atoms
Finding 1-2 1-3 1-4 neighbors ...
  special bond factors lj:   0          0          0         
  special bond factors coul: 0          0          0         
  0 = max # of 1-2 neighbors
  0 = max # of 1-3 neighbors
  0 = max # of 1-4 neighbors
  1 = max # of special neighbors
  Time spent = 0.0026238 secs
PPPM initialization ...
WARNING: System is not charge neutral, net charge = -0.2048 (../kspace.cpp:302)
  using 12-bit tables for long-range coulomb (../kspace.cpp:321)
  G vector (1/distance) = 0.201681
  grid = 36 50 24
  stencil order = 5
  estimated absolute RMS force accuracy = 0.00105653
  estimated relative force accuracy = 7.33721e-05
  using double precision FFTs
  3d grid and FFT values/proc = 65395 43200
Neighbor list info ...
  update every 1 steps, delay 0 steps, check yes
  max neighbors/atom: 2000, page size: 100000
  master list distance cutoff = 15.3
  ghost atom cutoff = 15.3
  binsize = 7.65, bins = 15 9 5
  3 neighbor lists, perpetual/occasional/extra = 3 0 0
  (1) pair morse, perpetual
      attributes: half, newton on
      pair build: half/bin/newton/tri
      stencil: half/bin/3d/newton/tri
      bin: standard
  (2) pair buck, perpetual, copy from (1)
      attributes: half, newton on
      pair build: copy
      stencil: none
      bin: none
  (3) pair lj/cut/coul/long, perpetual, copy from (1)
      attributes: half, newton on
      pair build: copy
      stencil: none
      bin: none
Setting up Verlet run ...
  Unit style    : metal
  Current step  : 0
  Time step     : 0.001
Per MPI rank memory allocation (min/avg/max) = 145.7 | 145.7 | 145.7 Mbytes
Step Temp Volume Cella Cellb Cellc CellGamma Pxx Pyy Pzz Pxy Pxz Pyz Lx Ly Lz Press PotEng 
       0          140    172711.88       73.664    73.664001       36.752          120   -209852.72   -209871.21   -280857.02    12.323032   -3.5633882    4.7601428       73.664    63.794896       36.752   -233526.98   -309191.56 
      10    283.73586     172566.7    73.643354    73.643355      36.7417          120    -213133.4   -213216.39   -260549.13    85.858455   -9.8690475   -126.39964    73.643354    63.777016      36.7417   -228966.31   -309516.05 
      20     534.9092    172141.31    73.582792    73.582793    36.711484          120   -212201.61    -211858.2   -201257.96     22.00938   -197.10172   -268.98631    73.582792    63.724568    36.711484   -208439.26   -310077.89 
      30    502.38348     171485.2    73.489188    73.489188    36.664784          120   -190403.45   -189901.81   -119899.81   -204.63186   -679.84002   -344.29111    73.489188    63.643504    36.664784   -166735.02   -310123.25 
      40    275.65594    170710.36    73.378335    73.378335    36.609478          120   -152532.38   -152398.77   -40763.069   -442.20363   -1078.7518     -396.716    73.378335    63.547503    36.609478   -115231.41   -309775.93 
      50    350.27945    169956.38    73.270145    73.270146      36.5555          120   -110870.91   -111039.12    -4123.177   -543.17652   -1156.3713   -568.54722    73.270145    63.453808      36.5555   -75344.401   -309970.88 
      60    672.75526    169309.97    73.177136    73.177137    36.509097          120   -78487.592   -78384.192    -37084.16   -576.57673    -2086.369   -448.07906    73.177136    63.373259    36.509097   -64651.982   -310641.71 
      70    869.78579    168771.45    73.099469     73.09947    36.470348          120   -53527.317   -53084.489   -98832.916   -1238.6069   -2457.8887   -303.62772    73.099469    63.305998    36.470348   -68481.574   -311109.58 
      80    720.49419    168300.87    73.031465    73.031466    36.436419          120   -35975.956   -36215.309   -142206.97   -1685.4592   -2987.8607    179.58922    73.031465    63.247105    36.436419   -71466.078    -310914.3 
      90    443.13377    167862.05    72.967937    72.967938    36.404724          120   -27212.932   -27654.259    -156403.9   -1857.9083   -3575.3551    269.94079    72.967937    63.192088    36.404724   -70423.697    -310448.9 
     100    472.36926    167436.42    72.906212    72.906213    36.373929          120   -12128.595   -11974.708   -136207.57   -1702.0762   -3344.4799   -248.12719    72.906212    63.138633    36.373929   -53436.959    -310555.7 
     110    643.11872    167030.06    72.847185    72.847186     36.34448          120    6621.7199    6811.1032   -92771.261   -1773.4191   -2800.4627   -347.11445    72.847185    63.087514     36.34448   -26446.146   -310945.78 
     120    626.20364    166662.63     72.79373    72.793731     36.31781          120    16505.977    16703.793   -40564.111   -1736.3795   -2540.4876   -919.37553     72.79373     63.04122     36.31781    -2451.447   -310983.18 
     130    515.89173    166349.86    72.748165    72.748165    36.295077          120    13862.903    14774.071    1.3768464   -1845.1157   -2518.2958    -772.9568    72.748165     63.00176    36.295077    9546.1168   -310828.66 
     140    479.32147    166094.04    72.710854    72.710854    36.276462          120    8512.5471    8654.9901    10884.318   -1476.7234   -2522.7841   -690.30676    72.710854    62.969447    36.276462    9350.6183   -310804.05 
     150    543.50359     165884.5    72.680264    72.680265      36.2612          120    1424.8417    2175.1999   -15294.972   -1729.8991   -2111.1474   -291.75682    72.680264    62.942956      36.2612   -3898.3103   -310976.61 
     160    596.10853    165699.66    72.653259     72.65326    36.247727          120   -8913.7096   -7269.2165   -54068.361    -1524.573   -2199.5273   -228.17872    72.653259    62.919569    36.247727   -23417.096   -311140.09 
     170      555.265    165515.64    72.626353    72.626354    36.234303          120   -13835.111   -11681.663   -83507.693   -664.66389   -2731.8239   -541.91905    72.626353    62.896267    36.234303   -36341.489   -311128.11 
     180    474.75594    165318.47    72.597504    72.597505     36.21991          120     -9692.34   -7557.1247   -98492.414    -460.1387   -2771.8178   -571.33984    72.597504    62.871284     36.21991   -38580.626   -311032.14 
     190     462.7613    165107.34    72.566585    72.566586    36.204484          120   -3892.4949   -1863.7144    -93017.71    155.82679   -2327.3214   -419.62383    72.566585    62.844507    36.204484    -32924.64   -311059.84 
     200    501.24975    164890.15    72.534753    72.534753    36.188603          120     292.8819    2195.6584   -71161.791   -292.62818   -2311.2775   -274.31698    72.534753    62.816939    36.188603   -22891.084    -311186.8 
     210     498.1906     164678.5    72.503705    72.503705    36.173112          120     4258.744    6302.1303   -46034.147   -758.31582   -2634.3417   -213.47662    72.503705    62.790051    36.173112   -11824.424   -311236.15 
     220    460.31888    164483.26     72.47504    72.475041    36.158811          120    7609.8859    8832.2181   -27662.476   -349.93723   -2528.2406   -710.45566     72.47504    62.765226    36.158811    -3740.124   -311214.51 
     230    441.53881    164310.36    72.449637    72.449637    36.146137          120    8395.3008    8452.4218   -23413.922   -29.050871   -2373.3432   -1401.1575    72.449637    62.743227    36.146137   -2188.7332   -311224.83 
     240    452.38307    164158.17    72.427261    72.427262    36.134974          120    6159.6834    5412.5117   -31997.562   -119.40631   -2449.0261   -1555.3899    72.427261    62.723849    36.134974   -6808.4558    -311290.9 
     250    463.06612       164019    72.406787    72.406788    36.124759          120    3879.7567     2717.416   -47967.967   -125.82861   -2279.7467   -1895.6299    72.406787    62.706118    36.124759   -13790.265   -311360.45 
     260    445.42319    163883.89    72.386901    72.386901    36.114837          120     4418.481    2492.1783   -62922.499   -109.39755   -1989.3651   -1721.9499    72.386901    62.688896    36.114837   -18670.613    -311375.6 
     270    415.58541    163747.02    72.366744    72.366744    36.104781          120    5420.4747    3674.0955   -69847.604   -781.61799   -1514.2567   -1089.2369    72.366744    62.671439    36.104781   -20251.011    -311364.5 
     280    402.30407    163606.86     72.34609    72.346091    36.094476          120    6774.1872    6126.2814    -65865.76   -573.65267     -997.235   -526.84914     72.34609    62.653552    36.094476   -17655.097    -311381.7 
     290    408.14614    163466.42    72.325383    72.325384    36.084145          120     9953.202     10553.65   -53667.087    -632.6892   -1140.7463    311.83531    72.325383     62.63562    36.084145   -11053.411   -311434.99 
     300    404.81174    163332.17    72.305578    72.305579    36.074264          120    13508.433    13955.957   -38607.717   -400.12485   -1138.6536    106.56377    72.305578    62.618468    36.074264   -3714.4424   -311470.63 
     310    388.60312    163210.54    72.287626    72.287627    36.065308          120    14474.974    15087.598   -26188.193    334.61311   -1751.0621   -158.75213    72.287626    62.602921    36.065308     1124.793    -311479.9 
     320    378.65873    163104.62    72.271985    72.271986    36.057504          120    13610.036    13641.887   -21455.372    197.11796   -2067.4389   -783.60239    72.271985    62.589376    36.057504    1932.1835   -311499.17 
     330    375.13592    163013.19    72.258478    72.258478    36.050765          120    11897.691    12586.745   -24867.925   -124.10841    -2009.557   -1246.4987    72.258478    62.577678    36.050765   -127.82946   -311529.27 
     340    372.67701    162932.15    72.246501    72.246502     36.04479          120    11023.516    11758.019   -35414.437   -119.48963   -1704.1342    -1291.562    72.246501    62.567306     36.04479   -4210.9673   -311561.29 
     350    361.01328    162856.06    72.235253    72.235254    36.039178          120     11135.49    11755.055   -45993.746   -349.26559   -1086.5107   -1369.2823    72.235253    62.557565    36.039178   -7701.0669   -311574.36 
     360    345.50045     162780.7    72.224111    72.224111    36.033619          120    11859.268     13138.66   -50707.959   -582.17867   -1022.7488    -1878.128    72.224111    62.547915    36.033619   -8570.0103    -311578.7 
     370    334.81692    162704.98     72.21291    72.212911    36.028031          120    13831.884    15461.442   -49556.472   -715.49887   -1668.6632   -2195.2128     72.21291    62.538215    36.028031   -6754.3821   -311590.42 
     380    333.07182    162630.58      72.2019    72.201901    36.022538          120    16205.927    17021.376   -43262.647   -429.05925   -1456.8113   -1908.5734      72.2019     62.52868    36.022538   -3345.1145    -311618.7 
     390      331.215    162560.76    72.191567    72.191568    36.017383          120    17834.632    18511.577    -33045.21   -243.39994     -1554.96   -1643.6048    72.191567    62.519732    36.017383    1100.3327   -311645.85 
     400    320.66867    162499.34    72.182473    72.182474    36.012846          120    18808.052    19020.496   -25041.178   -4.5080955   -2179.4561    -1284.145    72.182473    62.511856    36.012846    4262.4567   -311656.22 
     410     313.4454     162448.5    72.174945    72.174946     36.00909          120    19187.395    18956.125   -23050.613    264.02238   -1811.1161   -1302.2572    72.174945    62.505337     36.00909    5030.9691   -311671.29 
     420    310.56673    162407.88     72.16893     72.16893    36.006089          120    18207.378     18377.87   -25454.129    101.32284   -1926.2284    -1188.386     72.16893    62.500127    36.006089    3710.3728   -311693.38 
     430    305.38546    162375.02    72.164062    72.164062     36.00366          120    16883.177    17050.069   -31334.416    139.40127   -2057.5231   -847.66187    72.164062    62.495911     36.00366    866.27677   -311712.11 
     440    296.10216    162346.26      72.1598    72.159801    36.001534          120    16851.586     15563.48   -37547.015    127.13776   -2401.3027   -165.03372      72.1598    62.492221    36.001534   -1710.6498   -311721.21 
     450    286.64768    162318.57    72.155698    72.155698    35.999487          120    18163.075    15227.432   -40748.749    36.987889   -2145.8563    159.45428    72.155698    62.488668    35.999487   -2452.7472   -311728.41 
     460    281.69002    162291.12     72.15163     72.15163    35.997457          120     20457.49    16888.761   -40060.886    243.78806   -1954.4092   -82.161568     72.15163    62.485145    35.997457   -904.87828   -311743.34 
     470    279.55612    162265.33    72.147808    72.147809    35.995551          120     22084.94    18260.887   -35414.727    217.25898   -1982.8478   -93.569717    72.147808    62.481836    35.995551    1643.6999   -311763.01 
     480    273.52295    162243.67    72.144597    72.144597    35.993949          120    22951.855    19440.112   -28917.823    771.66573   -1740.6043   -450.46648    72.144597    62.479054    35.993949    4491.3814   -311774.99 
     490    269.74902    162228.54    72.142355    72.142356     35.99283          120    22967.012    20708.017   -25491.653    969.60451   -1822.5148   -333.60385    72.142355    62.477113     35.99283    6061.1253   -311789.85 
     500    262.69286    162220.95     72.14123    72.141231    35.992269          120    21545.426    20653.072     -25023.7    840.95105   -2089.4833    10.448816     72.14123    62.476139    35.992269    5724.9325   -311798.43 
     510    256.78158    162219.95    72.141082    72.141082    35.992195          120    20660.483    19912.422   -27290.143    767.95434   -2250.0968     -170.635    72.141082     62.47601    35.992195    4427.5871   -311807.84 
     520    252.60396    162223.71    72.141639    72.141639    35.992473          120    20083.416    19890.169    -30291.97    521.48208    -2263.515    -47.97053    72.141639    62.476492    35.992473     3227.205   -311820.07 
     530    249.60535    162230.52    72.142648    72.142649    35.992976          120    19279.771    20242.146   -33814.374    416.75277    -2296.827    78.790994    72.142648    62.477367    35.992976    1902.5142   -311834.16 
     540    243.31422    162238.84    72.143881    72.143881    35.993591          120    19099.856    20454.763   -35620.055    594.30569   -1930.1866    457.89919    72.143881    62.478434    35.993591    1311.5211   -311841.16 
     550    235.51388    162247.91    72.145226    72.145227    35.994263          120    19176.025    20353.985   -35614.042    597.18671   -1092.1812  -0.86413297    72.145226    62.479599    35.994263    1305.3225   -311844.45 
     560    233.06501    162257.73    72.146681    72.146681    35.994988          120    19693.854    20308.853   -33669.155    182.40654   -920.10469    319.83275    72.146681    62.480859    35.994988     2111.184   -311857.61 
     570    229.26795    162269.07    72.148362    72.148362    35.995827          120    20852.285    20203.601   -30145.592    89.090217   -951.20533    55.050789    72.148362    62.482315    35.995827    3636.7647   -311867.74 
     580    227.43143    162283.35    72.150478    72.150479    35.996883          120    21724.071    20611.648   -27681.167    333.56824   -631.15035   -186.48725    72.150478    62.484148    35.996883    4884.8507   -311881.08 
     590    225.28074    162301.67    72.153194    72.153194    35.998238          120    21765.735    21054.029   -25689.918     967.7564    -869.8703    176.84213    72.153194    62.486499    35.998238    5709.9484      -311894 
     600    220.80082    162324.52    72.156579     72.15658    35.999927          120    21438.598    20833.764   -26812.648    795.19779   -1030.3404   -14.910175    72.156579    62.489431    35.999927    5153.2381   -311901.57 
     610    217.73431    162351.04    72.160509    72.160509    36.001887          120      20848.4    19979.798   -29576.999    596.93875   -1007.9983   -290.09324    72.160509    62.492834    36.001887    3750.3995   -311910.68 
     620    214.42843    162379.55    72.164733    72.164733    36.003995          120     20240.14    19064.698   -32278.167    487.88037   -1074.8799   -512.88868    72.164733    62.496493    36.003995    2342.2238   -311919.73 
     630    209.84663    162408.49     72.16902     72.16902    36.006133          120    19832.109    18586.463   -34121.656   -122.03324   -1043.6107   -107.76758     72.16902    62.500205    36.006133    1432.3057   -311925.53 
     640    204.96173    162436.88    72.173225    72.173225    36.008231          120    19723.323    18278.916   -34877.793    16.569747   -723.40272    457.11705    72.173225    62.503847    36.008231    1041.4822   -311930.07 
     650    202.94258     162464.4      72.1773      72.1773    36.010264          120    19774.698    18551.103   -34283.541    360.34689   -864.33228    276.91783      72.1773    62.507376    36.010264    1347.4202   -311940.04 
     660    201.58425    162491.47    72.181309    72.181309    36.012265          120    19859.793    19308.511   -31754.144    498.62316     -741.634    28.534276    72.181309    62.510848    36.012265    2471.3865   -311951.14 
     670     197.9633    162519.21    72.185416    72.185417    36.014314          120    19484.483     19686.09   -29821.435    530.56755   -667.25811    -317.0356    72.185416    62.514405    36.014314    3116.3796   -311957.32 
     680    193.23875    162548.22    72.189711    72.189711    36.016457          120    18657.624    19058.628   -29614.227    493.06916   -674.19406   -193.96059    72.189711    62.518124    36.016457    2700.6749   -311960.68 
     690    188.42924    162578.03    72.194124    72.194124    36.018658          120      17810.7    18737.534   -31439.013    1.0898838   -626.23617    199.01019    72.194124    62.521946    36.018658    1703.0739   -311963.23 
     700    186.95727    162607.59    72.198499      72.1985    36.020841          120    17269.467    18557.044   -33605.989   -292.60321   -1173.6012    559.34256    72.198499    62.525735    36.020841     740.1739   -311971.87 
     710    186.94229    162635.91     72.20269     72.20269    36.022932          120    16590.704    18588.011   -35603.335   -210.67445   -1377.5775     269.6148     72.20269    62.529364    36.022932   -141.54019   -311983.19 
     720    184.48212    162662.17    72.206576    72.206577    36.024871          120    15708.054    18568.937   -36548.417    146.14524   -1241.2292   -348.95726    72.206576     62.53273    36.024871   -757.14196   -311989.43 
     730    180.45326    162685.93    72.210092    72.210092    36.026625          120    16132.365    18640.716   -36593.054    348.84794   -1044.0606   -259.87446    72.210092    62.535775    36.026625   -606.65743   -311992.17 
     740    177.63183    162707.46    72.213276    72.213276    36.028213          120    16450.092    18388.031    -36041.33     400.5187   -994.45327   -543.04722    72.213276    62.538532    36.028213   -401.06919   -311996.85 
     750    174.68736    162727.09     72.21618    72.216181    36.029663          120    16443.249    17533.265    -35078.73    49.471267   -1308.1179   -51.493434     72.21618    62.541047    36.029663   -367.40511   -312001.29 
     760    172.39818    162745.09    72.218843    72.218844    36.030991          120    16690.974    17533.912   -33854.342    -77.28539   -1356.3849    16.115344    72.218843    62.543354    36.030991    123.51471   -312006.42 
     770    170.08617    162762.02    72.221347    72.221347     36.03224          120    16620.528    17942.801   -33477.653    306.61551   -1149.2437    91.035023    72.221347    62.545522     36.03224    361.89201    -312011.6 
     780    169.01169    162778.22    72.223743    72.223743    36.033435          120    16935.436    17853.525   -33889.072    362.49252   -858.91056    123.21574    72.223743    62.547596    36.033435    299.96287   -312018.97 
     790    165.93048    162793.63    72.226022    72.226023    36.034573          120    16842.262    17363.918   -35244.923     374.0927   -854.38748    21.414101    72.226022    62.549571    36.034573    -346.2478   -312021.76 
     800    163.03441    162807.69    72.228102    72.228102     36.03561          120    16521.508    16932.646   -36148.312    365.52623   -865.58784    -19.82636    72.228102    62.551372     36.03561   -898.05267   -312024.27 
     810    162.94021    162819.89    72.229905    72.229906     36.03651          120    16271.593     16574.85   -36963.164    606.70262   -1168.5764   -591.06409    72.229905    62.552933     36.03651   -1372.2403   -312032.44 
     820    160.03124    162829.89    72.231384    72.231385    36.037248          120    15929.687    17039.474   -37058.111    495.15088   -1022.9076   -946.03323    72.231384    62.554214    36.037248   -1362.9834   -312034.47 
     830    158.16333    162837.85    72.232561    72.232561    36.037835          120    15866.085    17474.576   -35841.637    520.26391   -1000.8988   -1426.5366    72.232561    62.555233    36.037835   -833.65855   -312038.47 
     840     156.2267    162844.36    72.233525    72.233525    36.038316          120    15894.452    17024.826   -35035.679    179.18777   -910.09532   -1413.6209    72.233525    62.556068    36.038316   -705.46702   -312042.01 
     850    154.31797    162849.72    72.234317    72.234318    36.038711          120    15781.945     16761.88   -34640.742   -144.81205   -837.92744   -947.80704    72.234317    62.556754    36.038711    -698.9727   -312045.12 
     860    153.81797    162854.02    72.234953    72.234953    36.039028          120     16056.12    16761.465   -34482.166   -35.370923   -1456.5583   -1023.7158    72.234953    62.557305    36.039028   -554.86045   -312050.21 
     870     151.4688    162857.44    72.235458    72.235458     36.03928          120    16383.846    16502.364   -34800.918    65.598811   -1213.8695    -855.8934    72.235458    62.557742     36.03928   -638.23581   -312052.25 
     880    150.41897    162859.94    72.235827    72.235828    36.039465          120    15756.531    16807.679   -35459.408     222.2731   -1239.5743   -502.95158    72.235827    62.558062    36.039465   -965.06566    -312056.7 
     890    149.04163    162861.25    72.236021    72.236022    36.039561          120    15587.428      16709.2   -36080.059    379.15276   -1544.8634   -163.21735    72.236021     62.55823    36.039561   -1261.1435   -312060.05 
     900    146.44189     162861.1    72.235998    72.235999     36.03955          120    15234.033    16416.233   -36985.263    401.21425   -1470.5017    -651.2969    72.235998     62.55821     36.03955   -1778.3323   -312060.76 
     910    144.60516    162859.09    72.235701    72.235702    36.039402          120    15305.284     16371.97   -36930.734    674.60884   -1477.2926   -789.22868    72.235701    62.557953    36.039402   -1751.1599   -312063.05 
     920    144.26643    162855.39    72.235155    72.235155    36.039129          120    16198.715    17036.875   -35811.106    856.54005   -880.43443   -1182.2242    72.235155     62.55748    36.039129   -858.50521   -312067.42 
     930    143.16901    162850.97    72.234502    72.234502    36.038803          120     16769.91     17707.58   -34535.846    572.00951   -373.05559    -1196.169    72.234502    62.556914    36.038803    -19.45198   -312070.19 
     940    140.65473    162846.71    72.233872    72.233872    36.038489          120     16763.07    17330.992    -33891.45    631.59635   -1056.3009   -1084.8158    72.233872    62.556369    36.038489    67.537244   -312070.39 
     950    139.70651    162842.74    72.233285    72.233285    36.038196          120    16352.433    17925.583    -34629.19    496.56747   -1568.6022   -1416.1694    72.233285     62.55586    36.038196   -117.05784   -312072.97 
     960    140.90422    162838.89    72.232716    72.232716    36.037912          120    16588.002    18226.782   -35179.801    431.79483    -1126.001   -1404.8456    72.232716    62.555367    36.037912   -121.67237   -312079.57 
     970    139.08007    162835.09    72.232153    72.232154    36.037632          120    16516.639    17657.661   -35604.603    513.65051   -965.50172   -856.14657    72.232153     62.55488    36.037632   -476.76735   -312080.25 
     980     137.1667    162830.99    72.231547    72.231548    36.037329          120    16357.931    17193.577    -35903.09    646.82737   -882.11132   -409.63205    72.231547    62.554355    36.037329   -783.86064   -312080.68 
     990    137.19196    162826.29    72.230851    72.230852    36.036982          120    16702.339     16938.29   -36438.613     504.4716   -1004.6325   -425.09503    72.230851    62.553753    36.036982    -932.6613   -312084.13 
    1000    136.17765    162820.87    72.230051    72.230051    36.036583          120    17026.644    17405.981    -36809.63    561.71953   -1035.8782   -410.18646    72.230051    62.553059    36.036583   -792.33474   -312085.26 
Loop time of 295.46 on 1 procs for 1000 steps with 14848 atoms

Performance: 0.292 ns/day, 82.072 hours/ns, 3.385 timesteps/s
100.0% CPU use with 1 MPI tasks x no OpenMP threads

MPI task timing breakdown:
Section |  min time  |  avg time  |  max time  |%varavg| %total
---------------------------------------------------------------
Pair    | 238.29     | 238.29     | 238.29     |   0.0 | 80.65
Bond    | 0.00018978 | 0.00018978 | 0.00018978 |   0.0 |  0.00
Kspace  | 10.865     | 10.865     | 10.865     |   0.0 |  3.68
Neigh   | 39.571     | 39.571     | 39.571     |   0.0 | 13.39
Comm    | 0.42445    | 0.42445    | 0.42445    |   0.0 |  0.14
Output  | 0.010597   | 0.010597   | 0.010597   |   0.0 |  0.00
Modify  | 6.1807     | 6.1807     | 6.1807     |   0.0 |  2.09
Other   |            | 0.1128     |            |       |  0.04

Nlocal:    14848 ave 14848 max 14848 min
Histogram: 1 0 0 0 0 0 0 0 0 0
Nghost:    46871 ave 46871 max 46871 min
Histogram: 1 0 0 0 0 0 0 0 0 0
Neighs:    1.0108e+07 ave 1.0108e+07 max 1.0108e+07 min
Histogram: 1 0 0 0 0 0 0 0 0 0

Total # of neighbors = 10108044
Ave neighs/atom = 680.768
Ave special neighs/atom = 0
Neighbor list builds = 144
Dangerous builds = 0
PPPM initialization ...
  using 12-bit tables for long-range coulomb (../kspace.cpp:321)
  G vector (1/distance) = 0.202645
  grid = 36 50 24
  stencil order = 5
  estimated absolute RMS force accuracy = 0.000995137
  estimated relative force accuracy = 6.91084e-05
  using double precision FFTs
  3d grid and FFT values/proc = 65395 43200
Setting up Verlet run ...
  Unit style    : metal
  Current step  : 0
  Time step     : 0.001
Per MPI rank memory allocation (min/avg/max) = 152.6 | 152.6 | 152.6 Mbytes
Step Temp Volume Cella Cellb Cellc CellGamma Pxx Pyy Pzz Pxy Pxz Pyz Lx Ly Lz Press PotEng 
       0    136.17765    162820.87    72.230051    72.230051    36.036583          120    17039.439     17419.39    -36801.97    562.19584   -1035.7424   -410.23178    72.230051    62.553059    36.036583   -781.04703   -312085.07 
      10    136.26403    162814.88    72.229165    72.229165    36.036141          120    16616.128    17435.066   -36655.443    755.86296   -1042.0572   -485.39579    72.229165    62.552292    36.036141   -868.08307   -312088.08 
      20    134.31263     162808.3    72.228192    72.228192    36.035655          120    16028.366    17261.893   -35790.561    729.08699   -1295.6751   -364.07997    72.228192    62.551449    36.035655    -833.4343   -312087.21 
      30    135.38524     162801.2    72.227141    72.227142    36.035131          120    16190.731    17532.497   -35313.352    295.37918   -1738.4075   -182.01685    72.227141     62.55054    36.035131   -530.04111   -312091.63 
      40    135.33615     162793.9    72.226062    72.226063    36.034593          120    16321.936    17507.212   -34943.942    336.59556   -1368.0364   -115.68257    72.226062    62.549605    36.034593   -371.59801   -312094.04 
      50    133.57333    162786.55    72.224975    72.224976     36.03405          120    16447.894    16745.082   -35312.982    670.56028   -1054.5454   -276.46224    72.224975    62.548664     36.03405   -706.66885   -312092.72 
      60    132.64564    162778.86    72.223838    72.223838    36.033483          120    16417.046    16646.571   -35649.741    616.32792   -1064.9491   -550.58638    72.223838    62.547679    36.033483   -862.04141   -312092.49 
      70    134.41147    162770.65    72.222624    72.222625    36.032877          120    16637.413    16546.928   -36040.561    564.04853   -1074.7916   -303.62882    72.222624    62.546628    36.032877   -952.07348   -312096.95 
      80    133.83774    162761.86    72.221324    72.221324    36.032229          120    16567.323    16305.722    -35998.09    494.33926   -1009.2503   -27.204791    72.221324    62.545502    36.032229   -1041.6818   -312097.12 
      90    131.58082    162752.44     72.21993    72.219931    36.031533          120    16410.759    16535.784   -35639.459    397.60271   -939.19333   -421.92871     72.21993    62.544295    36.031533   -897.63892      -312094 
     100    131.58547    162742.54    72.218466    72.218467    36.030803          120    16278.598    16902.026   -35194.167    131.80291    -1300.378   -957.41261    72.218466    62.543027    36.030803   -671.18102   -312094.92 
     110    133.68089    162732.47    72.216977    72.216977     36.03006          120    16682.403    17336.988   -34290.218    184.91483   -1524.8376   -1255.8483    72.216977    62.541737     36.03006   -90.275669   -312099.12 
     120    132.78737    162722.81    72.215548    72.215548    36.029347          120    17028.818    17361.147    -33274.95    38.735624   -1425.6073   -1344.0726    72.215548      62.5405    36.029347    371.67174   -312097.43 
     130    132.80887    162714.06    72.214253    72.214254    36.028701          120     17619.99    17638.837   -32652.729    225.52187   -1150.3044   -1398.3115    72.214253    62.539379    36.028701    868.69942   -312097.47 
     140    132.82412    162706.66    72.213159    72.213159    36.028155          120    18091.829     17851.74   -32893.019    126.93906   -1349.3326   -1192.2762    72.213159    62.538431    36.028155    1016.8498   -312097.41 
     150     132.0449    162700.74    72.212282    72.212282    36.027717          120    18145.798    18348.306   -33393.617    49.110974   -1795.9713    -932.2221    72.212282    62.537671    36.027717    1033.4956   -312095.11 
     160    133.20378    162696.22    72.211613    72.211614    36.027384          120    18116.316    18520.572   -33751.123    110.78791   -1599.0184   -469.91098    72.211613    62.537092    36.027384    961.92172   -312096.21 
     170    133.57228    162692.96    72.211131    72.211132    36.027144          120    18337.892    18460.766    -34129.22   -84.569135   -1173.1299   -721.67601    72.211131    62.536675    36.027144    889.81275   -312095.62 
     180    133.79243    162690.86     72.21082    72.210821    36.026988          120    18977.502    18433.976   -34146.212   -39.718492   -1245.5029   -731.23123     72.21082    62.536406    36.026988    1088.4217   -312094.76 
     190    135.02178    162690.03    72.210697    72.210698    36.026927          120    18876.139    18754.235   -33611.806    332.00798   -1420.0811    -890.2991    72.210697    62.536299    36.026927    1339.5229   -312095.46 
     200    136.49383    162690.71    72.210799      72.2108    36.026978          120    19197.028    19172.218   -32825.032     265.3261   -1452.7334   -1125.7545    72.210799    62.536387    36.026978    1848.0716   -312096.57 
     210    136.58581     162693.3    72.211181    72.211181    36.027168          120    19086.454    19306.229   -33043.291    346.69716   -1437.0668   -1061.3142    72.211181    62.536718    36.027168    1783.1307   -312094.35 
     220    136.55403    162697.68     72.21183     72.21183    36.027492          120    18612.165    19614.719   -33232.214    383.86002   -1327.0418   -1123.1382     72.21183    62.537279    36.027492      1664.89   -312092.57 
     230    138.28617    162703.62    72.212708    72.212708     36.02793          120     17821.37    19482.115    -33470.92    207.79307     -1359.77   -625.06503    72.212708     62.53804     36.02793    1277.5218   -312093.24 
     240    138.31532    162710.63    72.213746    72.213746    36.028448          120    17175.117    18867.993   -33608.681    115.47097   -1192.8666   -222.79566    72.213746    62.538939    36.028448    811.47633   -312091.19 
     250    138.76605     162718.2    72.214866    72.214866    36.029007          120    17560.412    18278.147    -33974.91    -32.61665   -888.84324   -856.76212    72.214866    62.539909    36.029007    621.21605   -312090.02 
     260    139.34078    162726.12    72.216037    72.216037    36.029591          120    18254.637    18163.911   -33795.379   -20.351821   -1041.9486   -1170.6098    72.216037    62.540923    36.029591    874.38963   -312088.83 
     270    138.57048    162734.56    72.217286    72.217286    36.030214          120    18341.057    18030.366   -33900.005    4.8031297   -1262.2393   -935.82147    72.217286    62.542005    36.030214    823.80598   -312084.83 
     280     139.4343    162743.48    72.218605    72.218606    36.030872          120    17751.251    18288.451   -33892.976   -9.4184765   -1419.0965   -518.72712    72.218605    62.543147    36.030872    715.57534   -312084.24 
     290    141.39421    162752.74    72.219975    72.219976    36.031556          120    17433.809    18039.775   -33901.301    335.56356   -1246.4049   -676.45617    72.219975    62.544334    36.031556    524.09414   -312085.77 
     300    142.09158    162762.13    72.221363    72.221363    36.032248          120    16794.789    17690.919   -33837.396    425.60495   -1077.1027   -966.41398    72.221363    62.545536    36.032248    216.10401   -312084.77 
     310    144.13429    162771.33    72.222724    72.222725    36.032927          120    16742.458    17549.289   -33709.916    704.10967   -957.75959   -691.23377    72.222724    62.546715    36.032927    193.94369   -312086.52 
     320    144.99253    162780.32    72.224054    72.224054    36.033591          120    17136.112    17278.713   -33491.232    876.38271   -1113.3883   -532.74476    72.224054    62.547866    36.033591     307.8645   -312086.58 
     330    144.94077     162789.2    72.225367    72.225368    36.034246          120    17600.684    17080.952   -33915.904    498.44979   -1122.4161   -410.92121    72.225367    62.549003    36.034246    255.24385   -312084.78 
     340    143.06347    162797.94     72.22666    72.226661    36.034891          120    17843.474    17207.891   -34442.064    267.38246   -829.91999   -807.42824     72.22666    62.550123    36.034891    203.10032   -312079.51 
     350    143.98304    162806.52    72.227928    72.227928    36.035524          120    17667.618    17977.712   -34771.923    78.893389   -1389.2751   -875.62581    72.227928    62.551221    36.035524    291.13587   -312079.97 
     360    145.01298    162815.03    72.229186    72.229187    36.036151          120     17951.75    18084.719    -34300.99    159.99273   -1986.5336   -1069.2202    72.229186    62.552311    36.036151    578.49308   -312080.68 
     370    144.72258    162823.75    72.230476    72.230477    36.036795          120    18021.227     18421.95   -34480.137    336.64824   -1856.3635   -1089.3002    72.230476    62.553428    36.036795    654.34705   -312078.81 
     380    145.84318    162832.74    72.231806    72.231806    36.037458          120    17620.911    18260.657   -34706.511     650.4805    -1712.335   -867.29209    72.231806     62.55458    36.037458     391.6856   -312080.16 
     390     146.4973    162841.77    72.233141    72.233142    36.038125          120     17517.58     17932.79   -34557.227     500.9179   -1295.2612   -912.79457    72.233141    62.555736    36.038125     297.7144   -312080.75 
     400    147.26794    162850.66    72.234455    72.234455     36.03878          120    17235.706     17197.34   -35359.596    296.18824   -1089.3266   -840.84442    72.234455    62.556873     36.03878   -308.85027      -312082 
     410    145.35996    162858.81     72.23566    72.235661    36.039381          120     16537.16    16912.472   -36073.273    308.50314   -437.02975   -1099.0154     72.23566    62.557917    36.039381   -874.54719   -312077.76 
     420    145.12662    162865.68    72.236676    72.236676    36.039888          120    16241.998    16725.122    -36087.15    458.91636   -286.19636   -914.62684    72.236676    62.558797    36.039888   -1040.0098   -312077.88 
     430     145.3933    162871.12    72.237481    72.237481     36.04029          120      15700.1    16855.483   -35887.942    177.14083   -345.38574   -535.81872    72.237481    62.559494     36.04029   -1110.7866    -312078.5 
     440     146.2936     162875.1    72.238068    72.238069    36.040583          120    14959.964    16837.399   -35885.116    215.37567   -527.28357   -978.95916    72.238068    62.560003    36.040583   -1362.5843   -312080.56 
     450     146.0714    162877.48     72.23842    72.238421    36.040758          120    15517.642    17094.744   -35526.282    454.47184   -866.20294   -1765.1717     72.23842    62.560308    36.040758    -971.2985    -312080.7 
     460    145.36472    162878.72    72.238604    72.238604     36.04085          120    16279.335    17319.528   -35090.858    345.12884     -1038.52    -1771.086    72.238604    62.560467     36.04085   -497.33163   -312080.19 
     470    145.02994     162879.3     72.23869     72.23869    36.040893          120    16749.811    16801.016   -35224.376     237.6952   -1498.7268   -1528.1054     72.23869    62.560541    36.040893   -557.84988   -312080.54 
     480    144.85103    162879.31    72.238692    72.238692    36.040894          120    17252.787    16830.045   -34374.183    410.05184   -1376.3555   -1482.5783    72.238692    62.560543    36.040894   -97.117064   -312082.16 
     490    146.28022     162879.2    72.238674    72.238675    36.040885          120    17716.989     17141.87   -34193.884    524.58598   -903.93729   -999.79822    72.238674    62.560528    36.040885    221.65811   -312086.56 
     500    144.67538    162879.34    72.238696    72.238696    36.040896          120    18098.122    17974.099   -34176.249     606.1494    -976.3149    -742.3995    72.238696    62.560546    36.040896    631.99075   -312085.22 
     510    144.80892    162880.14    72.238814    72.238815    36.040955          120    17927.241     18373.98   -33809.233    671.91051   -1114.9196   -288.32404    72.238814    62.560649    36.040955    830.66252    -312087.8 
     520    144.13843    162881.76    72.239053    72.239053    36.041074          120    17858.071    17924.483    -34219.98    756.41003   -1205.8277   -180.24107    72.239053    62.560855    36.041074    520.85795    -312089.1 
     530    143.25323    162883.86    72.239364    72.239364    36.041229          120    17831.939    17649.964   -34977.442     480.2856   -1744.7276   -817.81129    72.239364    62.561125    36.041229    168.15389   -312089.46 
     540    142.32227    162886.07     72.23969     72.23969    36.041392          120    17654.537    17161.513   -34993.059    422.13206   -1897.6113   -588.62507     72.23969    62.561407    36.041392   -59.002841   -312089.74 
     550    140.77262    162888.12    72.239994    72.239994    36.041543          120    16950.762    17133.733   -34717.937     365.2837   -1555.6696   -874.70031    72.239994     62.56167    36.041543   -211.14722      -312089 
     560    141.48587    162889.87    72.240253    72.240253    36.041673          120    16755.836    17753.786   -35026.149    283.04609   -1492.9905   -1469.8675    72.240253    62.561895    36.041673   -172.17548   -312092.94 
     570    140.77833    162891.39    72.240476    72.240477    36.041784          120    16841.977     17793.39   -34344.684    135.94765   -1223.0411    -1723.367    72.240476    62.562088    36.041784      96.8942   -312094.22 
     580    139.76334    162892.96    72.240708    72.240709      36.0419          120    16829.997    18020.219   -33752.642   -68.530447   -995.24177   -1934.8459    72.240708    62.562289      36.0419    365.85772   -312094.75 
     590    140.91107    162894.79     72.24098     72.24098    36.042035          120    16509.386    17789.366   -34261.489    125.86855   -1276.2608   -1623.6968     72.24098    62.562524    36.042035    12.421134   -312099.24 
     600     140.4178    162896.54    72.241239    72.241239    36.042165          120    16294.399    17170.785   -34991.798    112.47066   -1330.0053   -908.68054    72.241239    62.562749    36.042165   -508.87127    -312100.4 
     610    139.28232    162897.71    72.241411    72.241411     36.04225          120    16889.428    16688.482   -35569.705   -291.04363   -1049.5688   -521.55936    72.241411    62.562897     36.04225   -663.93169   -312100.59 
     620    138.19943    162898.09    72.241467    72.241468    36.042279          120    17279.449    16361.173   -36128.467   -346.46365   -1247.7571   -317.53752    72.241467    62.562947    36.042279   -829.28173   -312100.65 
     630    137.64969    162897.59    72.241393    72.241394    36.042242          120    16969.755     16762.04   -35792.638     -290.691   -1713.1961   -53.014318    72.241393    62.562882    36.042242   -686.94752   -312101.61 
     640    136.50552    162896.39    72.241216    72.241216    36.042153          120      17149.4    17144.336   -35198.848    -345.9995   -1342.2675   -745.54168    72.241216    62.562729    36.042153   -301.70399    -312101.3 
     650    136.84923    162894.85    72.240989    72.240989     36.04204          120     17240.78    17005.208    -35358.59   -361.09762   -1751.4151   -1388.1444    72.240989    62.562532     36.04204   -370.86724   -312103.65 
     660    135.62985    162893.01    72.240716    72.240716    36.041904          120    17477.917    17259.158   -35415.867   -382.42031   -1924.7892   -1529.9906    72.240716    62.562296    36.041904   -226.26404   -312102.74 
     670    136.62076    162890.96    72.240413    72.240414    36.041753          120    17538.953    17160.119   -35649.365   -55.570699   -1364.6993   -1973.6534    72.240413    62.562034    36.041753   -316.76432   -312106.36 
     680     135.8796    162888.64     72.24007     72.24007    36.041581          120    17101.303    16838.087    -35493.91    239.78303   -1077.5796    -1954.034     72.24007    62.561736    36.041581   -518.17358   -312106.11 
     690    135.16107    162885.87    72.239661    72.239661    36.041377          120    16685.261    16913.749   -35048.679    484.88565   -746.49716   -1504.2221    72.239661    62.561382    36.041377   -483.22277   -312105.99 
     700    135.10641     162882.7    72.239193    72.239193    36.041144          120    16692.879      17168.6   -34639.086    1012.8847   -1080.2241   -1370.8431    72.239193    62.560977    36.041144   -259.20225   -312107.25 
     710    135.21334    162879.39    72.238702    72.238703    36.040899          120    16472.038    17493.436     -34102.6    900.23851   -1485.3778   -1307.0424    72.238702    62.560552    36.040899   -45.708927   -312108.28 
     720    134.55677    162876.12     72.23822    72.238221    36.040658          120    16624.143    17621.636   -34493.856    591.23706   -1646.2691   -1002.5155     72.23822    62.560134    36.040658   -82.692331   -312107.75 
     730    135.47157    162872.94    72.237749     72.23775    36.040423          120    17351.093    17772.702    -34536.36    403.34633    -1535.622   -893.12486    72.237749    62.559726    36.040423    195.81198    -312109.6 
     740    134.94628    162870.09    72.237328    72.237329    36.040213          120    17963.904    18049.583   -34873.529    299.55172   -1618.4427   -525.35997    72.237328    62.559362    36.040213     379.9859   -312108.95 
     750    135.49738    162867.73    72.236979    72.236979    36.040039          120    18092.489    17852.737   -35523.639    325.91474   -1668.4744   -776.31594    72.236979    62.559059    36.040039    140.52853   -312110.79 
     760    135.36319    162865.62    72.236667    72.236668    36.039884          120    17784.723    17199.103   -35070.617    583.62734    -1790.292   -1436.4841    72.236667    62.558789    36.039884   -28.930505      -312110 
     770    136.39015    162863.58    72.236365    72.236366    36.039733          120    17521.078    17205.553   -34983.894    549.79304   -1803.4198   -1697.1847    72.236365    62.558528    36.039733   -85.754236   -312111.46 
     780    136.01263    162861.53    72.236063    72.236063    36.039582          120    17352.752    17326.813   -34985.833    470.04778   -1492.7113   -1931.3747    72.236063    62.558266    36.039582   -102.08923    -312110.5 
     790     135.6809    162859.46    72.235756    72.235756    36.039429          120    16964.879    17719.652   -34862.264    195.56839   -1785.9038   -2081.8308    72.235756       62.558    36.039429   -59.244327   -312109.78 
     800    137.19067    162857.42    72.235455    72.235455    36.039279          120    17136.246    17508.317   -34350.432   -134.34849    -2030.879   -1997.1798    72.235455     62.55774    36.039279    98.043872   -312112.15 
     810    137.12967    162855.53    72.235175    72.235175    36.039139          120    17170.446    17163.534   -34681.701   -65.123856    -2092.088   -2073.4426    72.235175    62.557497    36.039139   -115.90681   -312111.27 
     820    135.95661    162853.61    72.234891    72.234892    36.038998          120    17094.198     17594.81   -34967.574    71.390007   -1892.5329   -2176.6537    72.234891    62.557252    36.038998    -92.85547    -312107.9 
     830    136.50449    162851.68    72.234606    72.234606    36.038855          120    17343.707    17890.904   -34963.257    389.08462   -1885.1252   -1977.5722    72.234606    62.557004    36.038855     90.45117   -312107.73 
     840    137.22957    162849.92    72.234346    72.234346    36.038726          120    17811.092    17944.948   -34774.916    609.84589    -1744.863   -1643.3737    72.234346    62.556779    36.038726    327.04133   -312108.05 
     850    137.16166    162848.61    72.234152    72.234153    36.038629          120    18256.117     18358.18   -34515.199    600.55367   -1940.5979   -1564.9848    72.234152    62.556612    36.038629    699.69943   -312106.77 
     860    136.84724    162848.07    72.234072    72.234072    36.038589          120    18256.141    18390.853   -34503.594    555.27951   -2174.6177   -1700.3822    72.234072    62.556542    36.038589    714.46653   -312104.44 
     870    137.67579    162848.34    72.234112    72.234112    36.038609          120    18336.754    18355.691   -34031.758      383.936   -2311.0473   -1982.8117    72.234112    62.556576    36.038609    886.89556   -312104.48 
     880    139.64331    162849.55    72.234291    72.234291    36.038698          120    17867.283    18661.964   -33781.547    472.94988   -1732.0053   -1889.7217    72.234291    62.556731    36.038698    915.89999   -312106.91 
     890    139.24378    162851.69    72.234608    72.234608    36.038856          120    17773.812    18720.685   -34420.277    552.40634   -1327.1413   -1807.2868    72.234608    62.557006    36.038856    691.40641   -312104.33 
     900    141.37453    162854.51    72.235024    72.235025    36.039064          120    17814.447    18160.804   -34560.443     750.8433   -1805.8573   -1989.3416    72.235024    62.557367    36.039064    471.60281   -312106.54 
     910    140.61217    162857.77    72.235507    72.235508    36.039305          120    17816.941    17908.859   -34010.176     1128.745   -1571.1585   -2126.8968    72.235507    62.557785    36.039305     571.8748   -312103.12 
     920     142.1398     162861.5    72.236058    72.236059     36.03958          120    17584.528    17868.679   -34056.223     1111.146   -1938.0675   -1875.9211    72.236058    62.558262     36.03958    465.66134   -312104.43 
     930    141.23834    162865.59    72.236663    72.236663    36.039881          120    17345.848    18196.318   -34706.619    1065.6705   -1693.7026   -1759.1862    72.236663    62.558785    36.039881    278.51591   -312101.41 
     940    141.33098    162869.83     72.23729     72.23729    36.040194          120    17191.605     17957.42   -34897.127    878.26109   -1575.1423   -1857.4405     72.23729    62.559328    36.040194    83.966133   -312100.46 
     950    142.99878       162874    72.237906    72.237907    36.040502          120    17123.751    17370.071   -34532.023    755.49972   -2220.6807   -1985.7698    72.237906    62.559862    36.040502   -12.733656   -312102.22 
     960    142.23926    162878.01    72.238499      72.2385    36.040798          120    17397.879    17243.776   -34381.934    982.23742   -1861.7389   -2044.2545    72.238499    62.560376    36.040798    86.573511   -312099.51 
     970    142.83611    162881.96    72.239083    72.239083    36.041089          120    17443.356     17221.85   -34074.855    1052.1369   -1313.5237     -1730.41    72.239083    62.560882    36.041089    196.78376   -312099.09 
     980    143.25364    162885.96    72.239675    72.239675    36.041384          120      17673.6     17249.48   -34265.547    661.06352   -1031.5182   -1611.8979    72.239675    62.561394    36.041384    219.17785   -312099.27 
     990     143.5011    162890.05    72.240279     72.24028    36.041686          120    17944.088    16911.661    -34495.72    499.98083   -1133.8838   -1751.4414    72.240279    62.561918    36.041686    120.00968   -312098.83 
    1000    142.99011    162894.09    72.240876    72.240877    36.041984          120    17395.565    16841.626   -35191.693    363.65927   -1289.4327   -1750.7968    72.240876    62.562435    36.041984   -318.16738   -312097.07 
    1010    143.45076     162897.6    72.241396    72.241396    36.042243          120    16522.898    16509.277   -35734.435    177.59026   -1755.5712    -1621.981    72.241396    62.562884    36.042243   -900.75318   -312097.85 
    1020    144.08576    162900.04    72.241755    72.241756    36.042422          120    16192.191    16449.637   -36120.341    -29.61076   -2123.1881   -1865.7489    72.241755    62.563196    36.042422   -1159.5044   -312098.92 
    1030    143.92976    162901.15    72.241919     72.24192    36.042504          120    16339.779    17021.415    -36526.41   -55.618979   -2320.1554   -1616.7016    72.241919    62.563338    36.042504   -1055.0719   -312098.02 
    1040    143.94591    162901.12    72.241916    72.241916    36.042502          120    16914.081    17729.206   -35797.822    406.54388   -2334.4341   -1518.4777    72.241916    62.563335    36.042502   -384.84507   -312097.59 
    1050    144.12395    162900.63    72.241843    72.241843    36.042466          120    17374.886    17587.449   -35316.287    360.68968   -2118.5808   -1361.4587    72.241843    62.563272    36.042466   -117.98411   -312098.25 
    1060    144.22806       162900    72.241749     72.24175    36.042419          120    17010.245    17373.278   -34875.832    149.50936   -1694.8802   -1287.2604    72.241749    62.563191    36.042419   -164.10289   -312098.79 
    1070     143.8595    162899.18    72.241629     72.24163    36.042359          120     16733.69    17668.532   -35843.411    297.04096    -1672.386   -1250.4318    72.241629    62.563087    36.042359   -480.39633   -312098.28 
    1080    143.73187    162897.83     72.24143     72.24143     36.04226          120    16140.528    17258.721   -36816.028    13.431077   -1434.4816   -1321.5437     72.24143    62.562914     36.04226   -1138.9265   -312097.96 
    1090    143.36746    162895.37    72.241066    72.241066    36.042078          120    16073.971    17335.692   -36775.011    223.36931   -1843.8476   -1235.4429    72.241066    62.562599    36.042078   -1121.7826   -312097.84 
    1100    143.75663    162891.86    72.240546    72.240546    36.041819          120    16845.412    17544.553   -35678.853    559.92787   -2672.0015   -1491.6963    72.240546    62.562148    36.041819   -429.62916      -312099 
    1110    142.90303    162887.97    72.239972    72.239972    36.041532          120    17747.676     17665.29   -35106.697    336.28528   -2554.6328   -2226.6606    72.239972    62.561651    36.041532    102.08985   -312098.34 
    1120    143.02223    162884.33    72.239433    72.239433    36.041264          120    18344.468    17890.624   -34785.918    437.93001   -2404.3344   -1875.0485    72.239433    62.561185    36.041264    483.05817   -312099.31 
    1130    142.77006    162881.35    72.238992    72.238993    36.041044          120    18685.483    17914.028   -34355.011    576.89471   -2312.6376   -1508.6937    72.238992    62.560803    36.041044    748.16668    -312099.9 
    1140    142.53459     162879.2    72.238675    72.238675    36.040885          120    18429.237    17861.852   -35430.873    355.88417   -1943.7727   -1112.9511    72.238675    62.560528    36.040885    286.73851   -312100.96 
    1150    142.79362    162877.49    72.238421    72.238422    36.040759          120    18244.858    17544.681     -35118.7    357.33794   -1779.6096   -877.27597    72.238421    62.560309    36.040759    223.61317   -312102.92 
    1160    142.85791    162876.09    72.238215    72.238216    36.040656          120     18306.61    17540.887   -34750.976    554.97182   -1867.3363   -880.34293    72.238215     62.56013    36.040656    365.50735   -312104.51 
    1170    142.06901    162875.13    72.238074    72.238074    36.040585          120    18243.279    17397.028   -34430.891   -65.351606   -1643.3263    -1325.645    72.238074    62.560008    36.040585    403.13878   -312104.53 
    1180    141.16664    162874.63       72.238       72.238    36.040548          120    18064.913    17754.998   -34914.488    7.1727548   -1351.6132   -948.47423       72.238    62.559943    36.040548    301.80767   -312104.37 
    1190    141.86184    162874.49    72.237979    72.237979    36.040538          120     17761.11    18002.011   -34836.769    263.61831    -1292.939   -489.05522    72.237979    62.559925    36.040538    308.78388   -312107.22 
    1200    141.25164    162874.69    72.238009    72.238009    36.040553          120    17499.296    17940.489   -34459.644    130.66914   -1910.6552   -832.21356    72.238009    62.559951    36.040553     326.7133   -312107.88 
    1210    139.64424    162875.22    72.238087    72.238087    36.040592          120    17300.452    17965.229   -34641.661    568.66911   -2285.7679   -908.73185    72.238087    62.560019    36.040592    208.00672   -312106.26 
    1220    139.33834    162876.02    72.238204    72.238205    36.040651          120    17401.746    18606.532   -34136.923    620.15207   -2245.5298   -1338.8665    72.238204    62.560121    36.040651    623.78491   -312106.96 
    1230    139.84758    162877.41     72.23841    72.238411    36.040753          120    17388.732     18758.58   -34291.504    500.37677    -1875.014   -1437.4233     72.23841    62.560299    36.040753    618.60234   -312109.73 
    1240    140.03245    162879.43    72.238709     72.23871    36.040903          120     17129.18    18751.222   -34274.438    456.43636   -2071.0006   -1019.1487    72.238709    62.560558    36.040903    535.32135   -312111.94 
    1250    138.56152    162881.95    72.239081    72.239082    36.041088          120    17005.705    18319.747    -34410.21    415.59501   -2389.1102   -988.13549    72.239081     62.56088    36.041088    305.08058   -312110.43 
    1260    138.23109    162884.68    72.239486    72.239486     36.04129          120    16503.188     17603.99   -34801.181    295.86954   -2019.9691   -1310.2733    72.239486     62.56123     36.04129   -231.33415   -312111.17 
    1270    138.20303    162887.07    72.239838    72.239839    36.041466          120    15945.347    17356.942   -35636.492     349.2932   -1836.7235   -1030.4278    72.239838    62.561536    36.041466   -778.06781    -312112.5 
    1280    137.58234    162888.61    72.240066    72.240066    36.041579          120        16550    17352.461   -35269.585     400.8162   -1184.3627   -940.35624    72.240066    62.561733    36.041579    -455.7077   -312112.74 
    1290    136.80482    162889.61    72.240214    72.240214    36.041653          120    16983.466    17443.751   -34282.057    525.63971   -1409.0953   -983.92234    72.240214    62.561861    36.041653     48.38685   -312112.37 
    1300    137.60412    162890.54    72.240351    72.240352    36.041722          120    17090.423    16831.997   -34589.636    786.97282    -1765.354   -1330.3403    72.240351     62.56198    36.041722   -222.40523   -312115.63 
    1310    137.75826    162891.22    72.240451    72.240452    36.041772          120    16767.337    16467.707   -34457.841    954.04903   -1873.6059   -1076.5926    72.240451    62.562066    36.041772   -407.59914   -312116.94 
    1320    136.64253    162891.44    72.240484    72.240484    36.041788          120    16888.815    16492.219   -34833.005    756.08951   -1635.4159   -672.46779    72.240484    62.562095    36.041788   -483.99043   -312115.59 
    1330     136.9995    162891.12    72.240437    72.240438    36.041765          120    17038.586    16560.079   -34971.482    686.33941    -1883.894   -950.36402    72.240437    62.562054    36.041765   -457.60583   -312117.33 
    1340    135.76116    162890.36    72.240324    72.240324    36.041708          120    17275.199    16753.782   -34412.649    296.60552   -1674.0077    -1083.105    72.240324    62.561956    36.041708   -127.88941   -312115.48 
    1350    135.33548    162889.45    72.240191    72.240191    36.041642          120    17580.795    17263.083   -34377.816    385.34716   -1724.6984   -695.27851    72.240191    62.561841    36.041642    155.35408   -312114.97 
    1360    135.79688    162888.76    72.240089    72.240089    36.041591          120    17782.072    17747.789   -34087.179    446.51227   -1436.5638   -714.98319    72.240089    62.561753    36.041591    480.89411   -312116.02 
    1370    136.26311    162888.56    72.240059     72.24006    36.041576          120    17772.163    17558.864   -34424.669    454.87602   -1297.9041    -837.3906    72.240059    62.561727    36.041576    302.11918   -312117.02 
    1380    135.04972    162888.68    72.240077    72.240078    36.041585          120    17559.365    17618.813   -35267.226      418.663   -1936.3734   -1161.4004    72.240077    62.561742    36.041585   -29.682375   -312114.96 
    1390    136.21734    162888.79    72.240092    72.240093    36.041592          120    17163.913    17577.952   -35299.782    493.26087   -1891.5234    -1388.099    72.240092    62.561756    36.041592   -185.97208   -312116.83 
    1400    135.98696    162888.71     72.24008    72.240081    36.041586          120    17271.839    17869.637   -35539.739     606.0263   -2056.4092   -1595.6247     72.24008    62.561745    36.041586   -132.75449   -312116.22 
    1410    136.01694    162888.47    72.240045    72.240046    36.041569          120    17066.617    18105.707   -35707.018    370.71097   -1757.4126   -1893.9815    72.240045    62.561715    36.041569   -178.23105   -312115.58 
    1420    136.86351    162888.06    72.239985    72.239985    36.041539          120    16697.157    18401.457    -35389.26    384.98376   -1682.5367   -1353.5434    72.239985    62.561663    36.041539   -96.881959   -312116.76 
    1430    137.02482    162887.58    72.239914    72.239914    36.041503          120     17064.18    18546.036   -35215.403    282.16637   -1858.3367   -1268.9658    72.239914    62.561601    36.041503    131.60419   -312116.24 
    1440    137.83849    162887.23    72.239861    72.239862    36.041477          120    17061.414     18286.75   -35101.095    408.94544   -2080.2673   -1102.1695    72.239861    62.561556    36.041477    82.356124   -312117.28 
    1450    137.09186    162886.98    72.239825    72.239826    36.041459          120    17471.757    17597.648   -34822.907    748.03538   -1956.1454   -674.20503    72.239825    62.561524    36.041459    82.166113   -312114.69 
    1460    138.48865    162886.86    72.239808    72.239808    36.041451          120     17768.57    18388.515   -34879.693    269.34852   -1509.0449   -1081.2379    72.239808    62.561509    36.041451    425.79737   -312116.53 
    1470    139.33699    162887.22    72.239861    72.239862    36.041477          120    18409.007    18900.182   -34659.835   -81.717638     -987.579   -1797.0987    72.239861    62.561555    36.041477    883.11782   -312117.24 
    1480    138.64351    162888.47    72.240045    72.240046    36.041569          120    18247.095    18766.214   -34801.373    191.30318   -1214.5505   -1678.2161    72.240045    62.561715    36.041569    737.31187   -312114.49 
    1490    138.18712    162890.48    72.240342    72.240343    36.041717          120    17628.251    18769.175   -34794.993    374.61129   -1288.8551   -1421.7598    72.240342    62.561972    36.041717    534.14465   -312112.32 
    1500    139.28089    162893.03    72.240719     72.24072    36.041905          120    17648.426    18453.849   -34486.288    362.47601   -1663.1571   -902.33269    72.240719    62.562299    36.041905    538.66235   -312113.49 
    1510    138.18225    162896.08     72.24117    72.241171     36.04213          120    17406.584    18471.579   -34402.219    101.51333   -1811.0562   -739.54191     72.24117    62.562689     36.04213    491.98138   -312110.18 
    1520    139.01879    162899.55    72.241684    72.241684    36.042386          120    17058.186    18472.928   -34570.578    160.96676   -1802.8388   -606.37859    72.241684    62.563134    36.042386    320.17875   -312110.56 
    1530    140.49729    162903.31    72.242238    72.242239    36.042663          120    17127.319    18741.435   -34494.905    757.92103   -2353.9799   -968.51044    72.242238    62.563614    36.042663    457.94955   -312112.19 
    1540    141.01359    162907.43    72.242849    72.242849    36.042968          120    17538.506    18726.838   -34465.586    414.66506   -2038.6914   -1333.3835    72.242849    62.564143    36.042968    599.91924   -312111.56 
    1550    140.46993    162912.08    72.243535    72.243536     36.04331          120    18155.105    18193.837   -34082.756    -39.62051   -1970.0231   -1582.3307    72.243535    62.564738     36.04331     755.3951   -312109.34 
    1560    140.17663    162917.38    72.244319    72.244319    36.043701          120    18351.903    17794.009   -33631.342   -138.66037   -1930.9059   -1522.2491    72.244319    62.565416    36.043701    838.18989   -312107.85 
    1570    141.89605    162923.43    72.245213    72.245214    36.044147          120    18402.405    17822.616   -33695.474    42.121112   -2118.4673   -1643.2867    72.245213    62.566191    36.044147    843.18238   -312109.59 
    1580    141.56468    162930.17     72.24621     72.24621    36.044645          120    17914.776     17761.32   -34263.618    390.93435   -2139.6945   -1945.8666     72.24621    62.567054    36.044645    470.82607   -312107.87 
    1590    141.89529    162937.21     72.24725    72.247251    36.045164          120    17247.488    17842.788   -34831.098    127.26715    -2292.255   -1564.8005     72.24725    62.567955    36.045164    86.392918   -312107.11 
    1600    142.33208    162944.12    72.248272    72.248272    36.045673          120    16665.373    17579.371   -34761.516    320.31891   -2156.8621   -1434.3761    72.248272    62.568839    36.045673   -172.25724   -312107.09 
    1610    142.52448    162950.61     72.24923     72.24923    36.046151          120    16431.148    16992.717   -35015.017    483.96811   -2134.0166   -1300.4915     72.24923    62.569669    36.046151   -530.38372   -312106.73 
    1620    143.48756    162956.33    72.250076    72.250077    36.046574          120     16766.19    16535.409   -35240.438    235.55634   -2255.2813   -1184.4899    72.250076    62.570402    36.046574   -646.27957   -312107.66 
    1630    144.14203    162961.18    72.250792    72.250793    36.046931          120    16829.869    16524.372   -35285.593     442.4437   -2344.4567   -1385.5768    72.250792    62.571022    36.046931   -643.78389    -312108.2 
    1640    142.55881    162965.17    72.251382    72.251383    36.047225          120    16838.144    16930.165   -35514.566    670.39839   -2490.7903    -1371.123    72.251382    62.571533    36.047225   -582.08539   -312104.19 
    1650    143.97915    162968.42    72.251863    72.251863    36.047465          120    16798.168    17656.249   -35561.035    820.28158    -2066.294   -1131.3354    72.251863    62.571949    36.047465   -368.87244   -312106.37 
    1660    143.45508    162971.16    72.252267    72.252267    36.047667          120    16589.324    17555.285   -35198.448    887.76367   -1864.0645   -1072.7713    72.252267    62.572299    36.047667    -351.2796   -312105.09 
    1670      143.075    162973.42    72.252602    72.252602    36.047834          120    16635.755    17534.615   -35103.432    498.07331   -2138.6051   -1034.7093    72.252602    62.572589    36.047834   -311.02087   -312103.94 
    1680    142.80743    162975.31     72.25288    72.252881    36.047973          120    16876.025    17992.969   -34640.966    256.32434   -1983.9281   -1129.2719     72.25288     62.57283    36.047973    76.009175    -312103.7 
    1690    143.17518    162977.17    72.253155    72.253156     36.04811          120    17268.098    17820.642   -34670.905    420.93321   -1853.8137   -1100.2467    72.253155    62.573069     36.04811    139.27844   -312104.63 
    1700    142.31388     162979.1    72.253441    72.253441    36.048252          120    17006.976    17807.264   -34633.851    538.49644   -1632.3747   -1094.4238    72.253441    62.573316    36.048252    60.129411   -312103.45 
    1710    142.03779    162981.05    72.253728    72.253729    36.048396          120    17647.288    17829.118   -35140.602     823.9342   -1643.2605   -910.44527    72.253728    62.573565    36.048396    111.93453   -312103.28 
    1720    143.27225    162983.04    72.254022    72.254023    36.048542          120    17465.636    17889.403   -35201.743    983.29502   -1664.1371    -1171.668    72.254022    62.573819    36.048542     51.09846   -312106.03 
    1730    142.70661    162985.02    72.254315    72.254316    36.048689          120    17435.753    17820.928    -35422.22    918.11205   -1631.3099   -1470.8536    72.254315    62.574073    36.048689   -55.179639   -312105.57 
    1740    142.71039    162986.86    72.254588    72.254588    36.048825          120    16827.429    17543.106   -35299.494    772.56376    -2127.395    -1308.297    72.254588    62.574309    36.048825   -309.65278   -312105.92 
    1750    142.10573     162988.3      72.2548      72.2548     36.04893          120    16659.429    17214.155    -35833.83    571.25075   -2056.4305    -1716.653      72.2548    62.574493     36.04893   -653.41536   -312105.09 
    1760     140.9634    162989.01    72.254905    72.254906    36.048983          120    16759.645    17392.897    -35897.34    1023.9627   -1862.7547   -1703.4246    72.254905    62.574584    36.048983   -581.59951   -312103.88 
    1770    142.32879    162989.09    72.254917    72.254918    36.048989          120    16695.582    17512.018   -35221.015    1043.5522   -1679.7177   -1945.0774    72.254917    62.574594    36.048989   -337.80542   -312107.13 
    1780     142.0312    162988.76    72.254869    72.254869    36.048965          120    16748.218    17382.867    -35682.89    591.96147   -1703.0174   -2245.3902    72.254869    62.574552    36.048965   -517.26835   -312107.63 
    1790    142.27043    162987.83    72.254731    72.254732    36.048896          120      16456.9    16725.153   -36361.083    714.12167   -1870.4139    -2351.883    72.254731    62.574433    36.048896   -1059.6768   -312109.42 
    1800    141.69245    162985.79    72.254429     72.25443    36.048745          120    16131.815    16415.141   -36849.873    761.18945   -1927.8465   -2417.6181    72.254429    62.574172    36.048745   -1434.3054   -312109.18 
    1810    142.20335    162982.31    72.253915    72.253916    36.048489          120    16307.288    16949.182   -36531.966    413.82847   -1733.2689   -2168.2249    72.253915    62.573727    36.048489   -1091.8319   -312111.21 
    1820    140.61217    162977.75    72.253241    72.253241    36.048153          120    16508.438    17023.442   -35505.423    625.77982   -1222.6762   -2013.8248    72.253241    62.573143    36.048153   -657.84777   -312109.45 
    1830    141.47865    162972.59    72.252479     72.25248    36.047772          120    16678.898    16808.956   -34788.664    391.22561    -1733.123   -1446.8992    72.252479    62.572483    36.047772   -433.60317   -312112.29 
    1840    139.76416    162967.08    72.251665    72.251666    36.047366          120    17025.575    16773.238    -35622.74   -55.838888   -2342.0104   -1540.2682    72.251665    62.571778    36.047366   -607.97565    -312110.7 
    1850     140.0749    162961.08    72.250777    72.250778    36.046923          120    16266.517     17068.59   -35905.514   -151.55679   -1977.1011   -2253.8954    72.250777    62.571009    36.046923    -856.8024   -312112.54 
    1860    139.79612    162954.33    72.249781    72.249781    36.046426          120    16165.675    16949.624   -36028.029    -232.3529   -1823.5801   -2035.1982    72.249781    62.570146    36.046426   -970.91033   -312112.92 
    1870    139.67592    162946.76    72.248661    72.248661    36.045867          120    16718.397    16917.605   -35945.084    381.57087   -1812.5803   -1554.7707    72.248661    62.569176    36.045867   -769.69389   -312113.74 
    1880     138.7678    162938.61    72.247457    72.247457    36.045267          120    17205.864    17315.801   -35074.193     611.0318   -1981.7266   -2013.2338    72.247457    62.568133    36.045267   -184.17628   -312113.58 
    1890    139.74305    162930.48    72.246255    72.246255    36.044667          120    17674.673    17844.114   -35091.535    409.14811   -2103.3938   -1956.6843    72.246255    62.567093    36.044667    142.41745   -312116.73 
    1900    138.23782    162922.74    72.245111    72.245112    36.044097          120    17436.444    18396.754   -34855.641    443.42259   -1895.9787   -1719.2637    72.245111    62.566102    36.044097    325.85209   -312115.45 
    1910     137.0797    162915.57    72.244052    72.244052    36.043568          120    17357.929     18333.06   -34675.667    499.02791   -1955.0683   -1819.4143    72.244052    62.565185    36.043568    338.44082   -312114.83 
    1920    137.68588    162908.98    72.243077    72.243077    36.043081          120    17354.088     18587.26   -35124.363    664.62344   -1454.5133   -1661.4731    72.243077     62.56434    36.043081    272.32824   -312116.82 
    1930    138.81768    162902.89    72.242176    72.242177    36.042632          120    17421.497    18244.542   -35092.924    608.13002   -1501.5837   -1259.6616    72.242176     62.56356    36.042632     191.0382   -312120.15 
    1940    137.53454    162897.17    72.241331    72.241332    36.042211          120    16903.511    17885.877   -34936.738    476.72712   -1737.3817     -1268.08    72.241331    62.562829    36.042211   -49.116467   -312118.64 
    1950    137.14492     162891.6    72.240508    72.240509      36.0418          120    17286.632    17942.635   -35012.133    510.42531   -1879.8728   -1508.0616    72.240508    62.562116      36.0418    72.378213   -312118.57 
    1960    138.36586    162886.31    72.239726    72.239727     36.04141          120    17805.297    18214.389   -34435.551    546.98413   -2357.4727   -1697.2947    72.239726    62.561439     36.04141    528.04497   -312121.12 
    1970    137.06193    162881.71    72.239046    72.239046     36.04107          120    17394.228    18400.008   -34036.601    285.88695   -2072.8424   -1518.0155    72.239046     62.56085     36.04107    585.87814   -312119.14 
    1980    137.27069    162877.87    72.238478    72.238479    36.040787          120    17393.831    18158.203   -34312.925    332.37661   -2000.3186   -1497.4627    72.238478    62.560358    36.040787    413.03614   -312119.91 
    1990    136.84952     162874.6    72.237994    72.237995    36.040546          120    17342.574    17837.549    -34377.63    286.99282     -2207.22   -1841.4643    72.237994    62.559939    36.040546    267.49761   -312119.42 
    2000    136.44642    162871.72    72.237569     72.23757    36.040334          120    17739.269    17829.321   -34921.523    19.553607   -2116.5392   -1941.0505    72.237569    62.559571    36.040334    215.68921   -312118.79 
    2010    136.53736    162869.18    72.237193    72.237194    36.040146          120    17940.161    18073.265   -34994.915    418.52815   -1664.7239   -1605.6722    72.237193    62.559245    36.040146    339.50375   -312118.95 
    2020      136.316    162867.11    72.236887    72.236887    36.039993          120    17786.956    18360.091   -34380.525    579.53863      -2015.8   -1440.9814    72.236887     62.55898    36.039993     588.8408   -312118.49 
    2030    137.51166     162865.7    72.236679     72.23668     36.03989          120    17740.314    18580.364    -34504.98     562.5681   -2403.9383   -1460.2124    72.236679      62.5588     36.03989    605.23243    -312120.8 
    2040    136.69701    162865.06    72.236584    72.236584    36.039842          120    18179.233    18525.727   -33682.977    721.01936   -2553.1633   -1553.0571    72.236584    62.558717    36.039842    1007.3275   -312118.67 
    2050    136.15629    162865.49    72.236648    72.236649    36.039874          120    17994.439    18765.315   -33480.502    568.80063   -2626.7485    -1755.367    72.236648    62.558773    36.039874    1093.0838   -312117.12 
    2060    138.54125    162867.08    72.236883    72.236884    36.039992          120    18017.924    18666.442   -33750.482    740.20781   -2358.2162   -1736.5551    72.236883    62.558977    36.039992    977.96156   -312121.38 
    2070    137.89796    162869.72    72.237273    72.237274    36.040186          120    18474.019    18264.176   -33741.155    1150.6302   -2401.2101   -1359.1153    72.237273    62.559314    36.040186    999.01355   -312119.58 
    2080    137.87281    162873.32    72.237806    72.237807    36.040452          120    18560.547    17732.688   -34246.754    1201.3726   -2201.0623   -1266.0689    72.237806    62.559776    36.040452    682.16045   -312119.17 
    2090    138.36501    162877.59    72.238436    72.238437    36.040766          120    18623.846    17655.905   -34683.089      755.065   -1869.0995   -1090.3016    72.238436    62.560322    36.040766    532.22057    -312118.9 
    2100    138.57539    162882.32    72.239136    72.239137    36.041116          120    18652.673    17763.001   -34594.194   -148.20082   -1816.1086   -1005.3037    72.239136    62.560928    36.041116    607.16013   -312118.38 
    2110    138.32982     162887.6    72.239917    72.239917    36.041505          120    18858.991    18289.624   -34519.379    -183.7877    -1894.156   -1342.6887    72.239917    62.561604    36.041505    876.41188   -312117.26 
    2120    139.28138    162893.68    72.240816    72.240816    36.041954          120    18932.006    18470.832   -34222.521    -481.6368   -2252.4665   -1402.4178    72.240816    62.562382    36.041954    1060.1054   -312118.22 
    2130    139.23729    162900.76    72.241862    72.241863    36.042476          120     19007.96    18334.503   -33701.431   -408.72488   -2454.7848   -1692.4073    72.241862    62.563289    36.042476    1213.6773   -312117.25 
    2140    138.59396     162908.9    72.243066    72.243066    36.043076          120    18712.628    18244.827   -34341.563    215.90889   -2392.4755   -1569.9537    72.243066    62.564331    36.043076    871.96385   -312114.86 
    2150    138.64117    162917.77    72.244376    72.244377     36.04373          120     18681.98    17819.183   -34696.238    317.66765   -2756.0997   -1526.8088    72.244376    62.565466     36.04373    601.64153   -312113.48 
    2160    140.18099    162927.06     72.24575    72.245751    36.044415          120    18453.463    17900.261   -34504.436   -22.746962   -2505.4454   -1081.3504     72.24575    62.566655    36.044415    616.42955    -312115.3 
    2170    140.08068    162936.76    72.247184    72.247184    36.045131          120    18237.817    17992.043   -34255.947    327.40645   -2605.6054   -862.92981    72.247184    62.567897    36.045131    657.97111   -312114.07 
    2180    139.29033    162946.87    72.248678    72.248679    36.045876          120    18114.177    17831.598   -34466.855     838.5247   -2416.0806   -919.75513    72.248678    62.569191    36.045876    492.97341   -312111.23 
    2190    140.76717    162957.22    72.250207    72.250208    36.046639          120    18191.252    18047.923   -35267.753    861.63202   -2073.4106   -1182.2389    72.250207    62.570515    36.046639    323.80737   -312113.18 
    2200    140.56971    162967.63    72.251745    72.251746    36.047406          120    17827.903    18040.411   -35085.766    1005.0072   -1792.3093   -1136.7062    72.251745    62.571847    36.047406    260.84914   -312111.75 
    2210    142.41098    162978.01     72.25328     72.25328    36.048172          120    17361.493    17883.258   -34799.785    1266.5549   -1683.1895    -1681.729     72.25328    62.573176    36.048172    148.32224   -312113.84 
    2220    141.77141    162988.28    72.254797    72.254797    36.048929          120    16945.127    17822.467   -34625.685    1030.7527   -2102.7924   -1930.6984    72.254797     62.57449    36.048929    47.302953   -312112.03 
    2230    141.46571    162998.28    72.256275    72.256276    36.049666          120    16755.367    17355.014   -34688.432    1086.1436   -2291.5531   -1730.9895    72.256275     62.57577    36.049666   -192.68372   -312110.63 
    2240    143.20088     163007.8    72.257682    72.257682    36.050368          120    16938.322    16736.246   -34576.508     981.4268   -2663.2869   -2186.7634    72.257682    62.576988    36.050368   -300.64655   -312113.17 
    2250    142.67733    163016.72    72.258999       72.259    36.051025          120    16896.251    16690.354   -34801.596    872.21377   -2897.1306   -2342.5024    72.258999    62.578129    36.051025   -404.99722   -312111.54 
    2260    142.58908    163024.97    72.260219    72.260219    36.051634          120    16456.154     17551.18   -34690.204    773.12224   -2555.1108   -1971.7689    72.260219    62.579186    36.051634    -227.6233   -312110.87 
[...]
   99200     140.7868    163187.66    72.284248    72.284249    36.063623          120    16621.047    16732.413   -34742.918   -318.80327   -2816.5226   -1757.9079    72.284248    62.599996    36.063623   -463.15299   -312134.66 
   99210    140.71959    163184.81    72.283827    72.283828    36.063412          120    16995.839    16905.033   -34270.986   -60.034098    -2928.199   -2324.1097    72.283827    62.599631    36.063412   -123.37126   -312134.57 
   99220    139.96314    163181.79    72.283381    72.283381     36.06319          120    17355.539    17020.491   -34500.261    132.64123    -2098.165   -2691.6203    72.283381    62.599245     36.06319   -41.410258   -312133.07 
   99230     141.1865    163178.66    72.282918    72.282919    36.062959          120    17589.228    16508.569   -35255.803    346.31962   -2101.0067   -2722.5853    72.282918    62.598844    36.062959   -386.00167   -312135.44 
   99240    140.29601    163175.11    72.282394    72.282395    36.062698          120     18011.38    16130.032   -35770.273    396.69582   -2169.6994   -2498.7503    72.282394     62.59839    36.062698   -542.95393   -312133.59 
   99250     141.2375    163170.92    72.281776    72.281777    36.062389          120     17511.82    15846.799   -35978.357    377.64838    -1654.006   -2063.8615    72.281776    62.597855    36.062389   -873.24621   -312135.47 
   99260    140.57194    163165.76    72.281014    72.281014    36.062009          120    17074.109    15838.759   -36364.916   -54.316501   -1795.8257   -2329.2636    72.281014    62.597195    36.062009   -1150.6828   -312133.56 
   99270    140.55176    163159.36    72.280069    72.280069    36.061537          120    17635.779    16030.873   -36062.603    157.83812   -2093.3482   -2021.8413    72.280069    62.596376    36.061537   -798.65028    -312133.6 
   99280    140.96541    163152.08    72.278994    72.278995    36.061001          120    17950.453    16406.388    -35010.58     222.8958   -2308.2574   -1716.0343    72.278994    62.595446    36.061001   -217.91322   -312134.17 
   99290    141.72859    163144.52    72.277877    72.277878    36.060444          120    17943.574    16283.317   -34059.549    262.17935   -2537.4399   -1252.5221    72.277877    62.594479    36.060444    55.780639   -312135.77 
   99300    140.65704    163137.02    72.276771    72.276771    36.059892          120    17775.109    16836.908    -33448.11    550.90585   -2390.6048   -846.89899    72.276771     62.59352    36.059892    387.96877   -312133.09 
   99310    140.43819     163129.9    72.275718    72.275719    36.059367          120    17469.548     17001.71   -33656.874    485.09923   -2769.6163   -1503.5217    72.275718    62.592609    36.059367    271.46113   -312132.95 
   99320    141.66043    163123.06    72.274708    72.274709    36.058863          120    17372.746    17085.287   -34337.983    722.68686   -3255.7327   -1994.7523    72.274708    62.591734    36.058863    40.016803   -312135.26 
   99330    139.93712    163116.28    72.273708    72.273708    36.058364          120    17634.901    17078.505   -34814.662    1055.9266   -3152.9205   -1706.6274    72.273708    62.590868    36.058364   -33.752073   -312131.44 
   99340    141.31518    163109.44    72.272697    72.272697    36.057859          120    17703.865    17381.302   -35313.336    359.44903   -2594.4649    -2071.073    72.272697    62.589992    36.057859   -76.056316   -312134.54 
   99350    141.68921    163102.54    72.271678    72.271679    36.057351          120    18326.721    17900.701   -34932.164   -71.338028   -2156.3385   -2127.4717    72.271678     62.58911    36.057351    431.75269   -312135.58 
   99360    141.03188    163096.06    72.270721    72.270722    36.056874          120    18255.535    17604.541   -34088.264    218.05221   -2134.9533   -2112.4264    72.270721    62.588281    36.056874    590.60382   -312134.93 
   99370    140.42968    163090.24    72.269861    72.269862    36.056445          120    18226.138    17632.039   -33463.789    156.45542   -2142.0503   -1925.0231    72.269861    62.587536    36.056445    798.12962   -312134.38 
   99380    141.39927     163085.3    72.269131    72.269132     36.05608          120    18461.542    17792.602   -32960.055    440.79257   -2008.9168   -1675.9724    72.269131    62.586904     36.05608    1098.0294    -312136.8 
   99390    140.04897    163081.54    72.268576    72.268577    36.055804          120    18643.493    17880.444   -33339.886    594.77264   -2151.7091   -1623.9537    72.268576    62.586424    36.055804    1061.3505    -312134.5 
   99400    140.14817    163078.96    72.268195    72.268195    36.055613          120    18271.935    18178.457   -33732.075    551.02553   -2084.9246   -1615.0549    72.268195    62.586093    36.055613    906.10573    -312135.4 
   99410    139.22889    163077.41    72.267965    72.267966    36.055499          120    18567.373     18362.09   -34168.362    437.76345   -2374.5304   -1702.8672    72.267965    62.585894    36.055499    920.36707   -312133.92 
   99420    139.70718    163076.84    72.267882    72.267883    36.055457          120    18295.177    18204.922   -34053.851    31.452179   -2622.0321    -1723.008    72.267882    62.585822    36.055457    815.41606   -312135.44 
   99430    140.16678    163077.16    72.267929    72.267929    36.055481          120    17787.835    18070.432   -34336.543     66.26738   -2561.7549   -1559.8484    72.267929    62.585863    36.055481    507.24146   -312137.07 
   99440    140.20812    163078.06    72.268061    72.268062    36.055547          120    17632.152    17708.269   -34235.539    411.46786    -2115.066   -1794.7997    72.268061    62.585977    36.055547    368.29402   -312138.03 
   99450    139.21497    163079.37    72.268256    72.268256    36.055644          120    17547.184    17330.258   -33823.709    464.66178   -1983.6082   -1797.2703    72.268256    62.586146    36.055644    351.24427   -312136.54 
   99460    139.58613    163081.08    72.268508    72.268509     36.05577          120    17627.356    17431.343   -33947.296    716.81359   -2744.1798   -1970.5614    72.268508    62.586365     36.05577    370.46766   -312137.38 
   99470    139.30598    163083.27    72.268831    72.268831     36.05593          120    18239.114    17572.274    -33239.09    438.65779    -2438.299   -2062.3625    72.268831    62.586644     36.05593    857.43288   -312137.07 
   99480    139.16254    163086.33    72.269283    72.269284    36.056156          120    18219.686    17585.833   -33698.574    122.63889   -2378.9339   -1518.0454    72.269283    62.587036    36.056156    702.31515   -312137.42 
   99490    138.95565    163090.18    72.269853    72.269853     36.05644          120    17786.032    17565.113   -33996.939    326.34745   -2234.5567   -1485.5908    72.269853    62.587529     36.05644    451.40214   -312137.03 
   99500    139.02256    163094.48    72.270488    72.270488    36.056757          120    17065.138    16895.723   -34775.518   -104.36975   -1836.1416   -1973.3762    72.270488    62.588079    36.056757   -271.55246   -312137.45 
   99510    138.94373    163098.51    72.271083    72.271084    36.057054          120    16996.362    16414.781   -35475.746    62.037233   -1912.4913   -1374.6102    72.271083    62.588594    36.057054   -688.20096   -312137.23 
   99520    139.01052    163101.85    72.271576    72.271577      36.0573          120    17835.141    16819.735   -35866.601    325.90778   -1798.1253   -1212.4903    72.271576    62.589022      36.0573   -403.90814   -312136.99 
   99530    139.85169    163104.75    72.272004    72.272005    36.057514          120    17706.967    17497.222   -35243.952    71.209459   -1812.9713   -1147.8918    72.272004    62.589392    36.057514   -13.254577    -312138.9 
   99540    139.26559    163107.66    72.272434    72.272435    36.057728          120    17961.594    17588.966   -34163.719   -200.63229    -1823.006   -1197.1436    72.272434    62.589764    36.057728    462.28012   -312137.66 
   99550    138.62911    163111.05    72.272935    72.272935    36.057978          120    17858.442     17795.85   -33933.798   -53.517508   -2604.6938   -2153.4519    72.272935    62.590198    36.057978    573.49793   -312136.32 
   99560    139.56387    163115.05    72.273526    72.273526    36.058273          120    17723.629    17897.238   -34320.454   -143.44606   -2458.4734   -2313.2237    72.273526     62.59071    36.058273    433.47096   -312138.03 
   99570     139.7177    163119.53    72.274187    72.274188    36.058603          120    18096.876    17468.539    -34841.79    29.630157   -2398.8683   -2123.2836    72.274187    62.591283    36.058603    241.20854   -312138.33 
   99580    139.91242    163124.29    72.274891    72.274891    36.058954          120    18269.401    16880.192   -34441.103    264.61037   -2354.8439   -1530.0856    72.274891    62.591892    36.058954    236.16374   -312138.77 
   99590    139.41368    163129.37     72.27564    72.275641    36.059328          120    18052.321    17595.159   -34099.107    427.93202   -1896.3341   -1227.9573     72.27564    62.592541    36.059328     516.1246   -312137.61 
   99600    140.10924    163135.01    72.276473    72.276474    36.059743          120    18082.782    17647.692   -34591.081    58.009144   -1612.2223   -1273.2979    72.276473    62.593263    36.059743    379.79764   -312138.76 
   99610    138.73374    163141.04    72.277364    72.277364    36.060188          120    17413.281    17232.119   -35399.398    223.98451   -1811.7837   -1350.8063    72.277364    62.594034    36.060188   -251.33285   -312135.96 
   99620    138.27761    163146.79    72.278213    72.278213    36.060611          120    16230.395    16679.733   -35513.876    233.72152   -2369.5377   -1713.3472    72.278213    62.594769    36.060611   -867.91587    -312134.8 
   99630    138.83402    163151.66    72.278932    72.278932     36.06097          120     16799.94    16488.751   -35543.317   -97.139753   -2076.6912   -1899.0502    72.278932    62.595392     36.06097   -751.54201   -312135.45 
   99640    138.83318    163155.73    72.279533    72.279533     36.06127          120    16809.035    16934.652   -34716.353    313.37371   -2332.4131   -1762.5034    72.279533    62.595912     36.06127   -324.22201   -312134.84 
   99650    141.01554     163159.4    72.280075    72.280076    36.061541          120    17524.694     16592.37   -34560.037    242.13123   -2205.0867   -1402.6565    72.280075    62.596382    36.061541    -147.6576   -312138.78 
   99660    140.25378    163162.91    72.280594    72.280594    36.061799          120    17693.414    16209.347   -34148.521   -29.858787   -2207.8323   -1691.0981    72.280594    62.596831    36.061799   -81.920033   -312137.01 
   99670    140.72522    163166.35    72.281101    72.281101    36.062052          120    17719.737    16493.736   -34421.169   -131.70964   -2248.2708   -1738.6702    72.281101     62.59727    36.062052     -69.2321   -312137.23 
   99680    138.95658    163169.68    72.281593    72.281594    36.062298          120     17494.04    16482.694   -34939.826   -134.87388   -1970.6232    -1417.235    72.281593    62.597696    36.062298   -321.03069   -312133.74 
   99690    139.69447    163172.68    72.282036    72.282037    36.062519          120    16930.347    16638.052   -35203.181    304.96171   -2409.6861   -1285.7002    72.282036     62.59808    36.062519   -544.92751   -312134.66 
   99700    140.90456    163175.05    72.282387    72.282387    36.062694          120    16640.293    16245.832   -35542.059    401.36689   -2592.6848   -1108.1664    72.282387    62.598384    36.062694   -885.31142   -312136.63 
   99710    140.31683    163176.51    72.282602    72.282602    36.062801          120    17243.565    16420.746   -35506.954    352.91675   -2092.3201   -1183.8345    72.282602     62.59857    36.062801   -614.21457   -312135.17 
   99720    139.78331    163177.29    72.282717    72.282717    36.062858          120    17816.126    16619.785   -35223.543    317.30203    -1993.291   -1685.0308    72.282717    62.598669    36.062858   -262.54429   -312133.92 
   99730    140.27889    163177.76    72.282786    72.282786    36.062893          120    17855.296    16716.891   -34917.177    192.22989   -2563.5081   -1893.3415    72.282786    62.598729    36.062893   -114.99648   -312134.68 
   99740    140.77486    163178.06     72.28283    72.282831    36.062915          120    18163.085    16404.754   -35184.353    306.49921   -1990.1208   -1238.1845     72.28283    62.598768    36.062915   -205.50463   -312135.48 
   99750    141.01489    163178.14    72.282843    72.282843    36.062921          120    17820.039    16528.861   -35027.596    508.05696   -2072.0155   -1529.5737    72.282843    62.598779    36.062921   -226.23189   -312135.72 
   99760    141.15222    163177.99     72.28282    72.282821     36.06291          120    17663.987    16770.033   -34884.872    416.42065   -1959.3065   -1823.5586     72.28282    62.598759     36.06291   -150.28379   -312135.77 
   99770    141.11353     163177.7    72.282777    72.282778    36.062889          120    17277.697    17532.355   -34430.532    259.97594   -1797.4314   -1643.4022    72.282777    62.598722    36.062889    126.50641   -312135.82 
   99780    139.26492    163177.53    72.282752    72.282752    36.062876          120    17770.312    17140.387   -34306.513   -44.875444    -2427.908   -2104.7361    72.282752      62.5987    36.062876    201.39512   -312132.09 
   99790    140.72545    163177.52    72.282751    72.282752    36.062876          120    17483.076    16882.066   -35103.548   -10.424812   -2500.6468   -1719.8038    72.282751    62.598699    36.062876   -246.13529   -312135.14 
   99800    140.92523    163177.29    72.282717    72.282717    36.062859          120    16945.413    17057.954   -35261.849    72.861393   -2230.8515    -1574.818    72.282717     62.59867    36.062859    -419.4939   -312135.45 
   99810    140.55848    163176.64    72.282621    72.282621     36.06281          120    17599.222    16695.392   -34639.556    2.2329771   -2327.6163   -1615.2521    72.282621    62.598586     36.06281    -114.9809   -312134.54 
   99820    140.66682    163175.86    72.282506    72.282506    36.062753          120    17784.986    17305.249   -34167.392    31.639375   -2489.4667   -1724.1292    72.282506    62.598487    36.062753    307.61454   -312135.02 
   99830    140.16283    163175.38    72.282435    72.282435    36.062718          120    17460.106    17297.375   -33982.297    356.98217   -2082.9285    -2209.343    72.282435    62.598425    36.062718    258.39457   -312134.05 
   99840    139.99471    163175.11    72.282395    72.282395    36.062698          120    16763.323    16595.823   -34734.271    500.65883   -1923.7325   -1976.9788    72.282395    62.598391    36.062698   -458.37501   -312133.55 
   99850    139.86969    163174.34    72.282281    72.282282    36.062641          120    16562.018    16478.468   -35494.015    655.46792   -1572.5959   -1663.0423    72.282281    62.598292    36.062641   -817.84287   -312133.61 
   99860     140.8291    163172.73    72.282044    72.282044    36.062523          120    16894.998    17143.946   -35166.775    477.13788   -1887.5455    -1733.808    72.282044    62.598087    36.062523   -375.94355   -312135.65 
   99870    141.07449    163170.71    72.281745    72.281746    36.062374          120    17510.227    17382.964   -34768.378    80.503494   -2162.3972   -1857.9634    72.281745    62.597828    36.062374    41.604159    -312135.5 
   99880    139.80214    163168.65    72.281442    72.281442    36.062222          120     17833.85    16551.984   -35133.671    87.103433    -2218.375   -1440.6094    72.281442    62.597565    36.062222   -249.27879   -312133.18 
   99890    140.44042    163166.31    72.281096    72.281096     36.06205          120    17420.436    16108.002   -35263.181    526.80973   -2402.5364   -1624.5828    72.281096    62.597266     36.06205   -578.24749    -312134.3 
   99900    139.92679    163163.33    72.280656    72.280656     36.06183          120    17135.044    16171.421    -35648.62    613.69318   -2263.4816   -1809.4992    72.280656    62.596885     36.06183   -780.71839   -312133.74 
   99910    140.97331     163159.5     72.28009    72.280091    36.061548          120    16575.208    16394.865   -35249.789    244.44659   -2459.2791   -1593.6993     72.28009    62.596395    36.061548    -759.9052   -312135.83 
   99920    140.85619    163154.87    72.279407    72.279407    36.061207          120    16731.348    17033.766   -34445.562     370.5368   -2084.5254   -1752.9152    72.279407    62.595803    36.061207   -226.81587    -312136.1 
   99930    139.54511    163149.98    72.278685    72.278685    36.060847          120    17456.901    17552.794   -33903.155    78.318771    -2324.158   -1220.0093    72.278685    62.595178    36.060847    368.84669   -312133.88 
   99940    140.11966    163145.38    72.278004    72.278005    36.060507          120    17420.321    16977.193   -34350.641   -258.40485   -2003.5796   -1296.8898    72.278004    62.594588    36.060507    15.624243    -312135.4 
   99950    139.95763    163140.76    72.277322    72.277322    36.060167          120    17169.905    16681.255   -35073.466    126.28796   -1671.1159   -1576.8706    72.277322    62.593997    36.060167   -407.43536   -312135.89 
   99960    140.35012    163135.77    72.276586    72.276586    36.059799          120    17380.692    17377.621   -34645.731    242.01472   -1804.4059   -1899.1423    72.276586     62.59336    36.059799    37.527371    -312137.5 
   99970    139.39719    163130.77    72.275848    72.275848    36.059431          120    17631.132    17506.979   -34635.531    518.34106   -1832.4738   -1769.2653    72.275848    62.592721    36.059431    167.52683   -312136.48 
   99980    139.46447    163125.98    72.275139    72.275139    36.059078          120     18003.58    17665.526    -34486.83     95.06914   -2342.5846   -1752.5354    72.275139    62.592107    36.059078    394.09211   -312137.85 
   99990    139.19077    163121.59    72.274491    72.274492    36.058755          120     18079.12    17664.871   -34231.455   -267.80138   -2442.3154   -1274.9991    72.274491    62.591546    36.058755    504.17873   -312137.93 
  100000    139.71826    163117.76    72.273925    72.273926    36.058472          120    17938.654    17674.247   -34115.267   -419.82007   -2283.8394   -797.97699    72.273925    62.591056    36.058472    499.21167   -312139.16 
Loop time of 28552.1 on 1 procs for 100000 steps with 14848 atoms

Performance: 0.303 ns/day, 79.311 hours/ns, 3.502 timesteps/s
100.0% CPU use with 1 MPI tasks x no OpenMP threads

MPI task timing breakdown:
Section |  min time  |  avg time  |  max time  |%varavg| %total
---------------------------------------------------------------
Pair    | 24395      | 24395      | 24395      |   0.0 | 85.44
Bond    | 0.021571   | 0.021571   | 0.021571   |   0.0 |  0.00
Kspace  | 1119.3     | 1119.3     | 1119.3     |   0.0 |  3.92
Neigh   | 2358.2     | 2358.2     | 2358.2     |   0.0 |  8.26
Comm    | 39.058     | 39.058     | 39.058     |   0.0 |  0.14
Output  | 1.062      | 1.062      | 1.062      |   0.0 |  0.00
Modify  | 627.68     | 627.68     | 627.68     |   0.0 |  2.20
Other   |            | 11.42      |            |       |  0.04

Nlocal:    14848 ave 14848 max 14848 min
Histogram: 1 0 0 0 0 0 0 0 0 0
Nghost:    46820 ave 46820 max 46820 min
Histogram: 1 0 0 0 0 0 0 0 0 0
Neighs:    1.00896e+07 ave 1.00896e+07 max 1.00896e+07 min
Histogram: 1 0 0 0 0 0 0 0 0 0

Total # of neighbors = 10089623
Ave neighs/atom = 679.527
Ave special neighs/atom = 0
Neighbor list builds = 8454
Dangerous builds = 0
 
All done!
Total wall time: 8:00:48
