LAMMPS (16 Mar 2018)
Reading data file ...
  triclinic box = (0 0 0) to (9.208 7.97436 18.376) with tilt (-4.604 0 0)
  1 by 1 by 1 MPI processor grid
  reading atoms ...
  116 atoms
Finding 1-2 1-3 1-4 neighbors ...
  special bond factors lj:   0          0          0         
  special bond factors coul: 0          0          0         
  0 = max # of 1-2 neighbors
  0 = max # of 1-3 neighbors
  0 = max # of 1-4 neighbors
  1 = max # of special neighbors
Replicating atoms ...
  triclinic box = (0 0 0) to (73.664 63.7949 36.752) with tilt (-36.832 0 0)
  1 by 1 by 1 MPI processor grid
  14848 atoms
Finding 1-2 1-3 1-4 neighbors ...
  special bond factors lj:   0          0          0         
  special bond factors coul: 0          0          0         
  0 = max # of 1-2 neighbors
  0 = max # of 1-3 neighbors
  0 = max # of 1-4 neighbors
  1 = max # of special neighbors
  Time spent = 0.0048089 secs
PPPM initialization ...
WARNING: System is not charge neutral, net charge = -0.2048 (../kspace.cpp:302)
  using 12-bit tables for long-range coulomb (../kspace.cpp:321)
  G vector (1/distance) = 0.201681
  grid = 36 50 24
  stencil order = 5
  estimated absolute RMS force accuracy = 0.00105653
  estimated relative force accuracy = 7.33721e-05
  using double precision FFTs
  3d grid and FFT values/proc = 65395 43200
Neighbor list info ...
  update every 1 steps, delay 0 steps, check yes
  max neighbors/atom: 2000, page size: 100000
  master list distance cutoff = 15.3
  ghost atom cutoff = 15.3
  binsize = 7.65, bins = 15 9 5
  3 neighbor lists, perpetual/occasional/extra = 3 0 0
  (1) pair morse, perpetual
      attributes: half, newton on
      pair build: half/bin/newton/tri
      stencil: half/bin/3d/newton/tri
      bin: standard
  (2) pair buck, perpetual, copy from (1)
      attributes: half, newton on
      pair build: copy
      stencil: none
      bin: none
  (3) pair lj/cut/coul/long, perpetual, copy from (1)
      attributes: half, newton on
      pair build: copy
      stencil: none
      bin: none
Setting up Verlet run ...
  Unit style    : metal
  Current step  : 0
  Time step     : 0.001
Per MPI rank memory allocation (min/avg/max) = 145.7 | 145.7 | 145.7 Mbytes
Step Temp Volume Cella Cellb Cellc CellGamma Pxx Pyy Pzz Pxy Pxz Pyz Lx Ly Lz Press PotEng 
       0          130    172711.88       73.664    73.664001       36.752          120   -209972.55   -209989.16    -280975.3    11.535646   -3.3091715    4.4200154       73.664    63.794896       36.752   -233645.67   -309191.56 
      10    278.92519    172555.46    73.641755    73.641755    36.740901          120   -213314.79   -213394.94    -260745.4    83.075285   -9.7749175   -122.52656    73.641755    63.775631    36.740901   -229151.71    -309528.2 
      20     528.7438    172097.59    73.576562    73.576563    36.708376          120   -212403.43   -212065.74   -201302.98    21.835537   -189.74638   -259.69254    73.576562    63.719173    36.708376   -208590.72   -310092.69 
      30    492.00062    171395.18    73.476325    73.476326    36.658367          120   -190930.66    -190432.9   -119572.41   -204.20006   -661.20036   -331.44235    73.476325    63.632365    36.658367   -166978.66   -310136.87 
      40    263.66081    170576.52    73.359153    73.359154    36.599908          120   -153866.08   -153704.66   -40453.403   -431.91411   -1067.2056   -386.16762    73.359153    63.530891    36.599908   -116008.05   -309791.47 
      50    336.93223    169795.62    73.247036    73.247036    36.543971          120   -112641.13   -112760.12   -3809.8579   -527.06384   -1146.1628   -561.07697    73.247036    63.433794    36.543971   -76403.705   -309985.76 
      60    661.00476    169138.45    73.152416    73.152417    36.496764          120   -79834.206   -79726.896   -36664.867   -576.52933   -2076.6243   -444.21442    73.152416    63.351851    36.496764   -65408.656   -310661.29 
      70     859.0231    168594.71    73.073943    73.073943    36.457612          120   -53956.218   -53502.319   -98271.632    -1195.261   -2468.9461   -296.72009    73.073943    63.283891    36.457612   -68576.723   -311134.24 
      80    709.14628    168116.72    73.004819    73.004819    36.423125          120   -35287.221   -35480.746   -141028.37   -1665.4818   -2983.5036    182.79845    73.004819    63.224028    36.423125    -70598.78   -310940.14 
      90     432.4683    167666.62    72.939609    72.939609    36.390591          120   -25886.495   -26307.334   -154772.99   -1846.5726   -3581.9556    320.76773    72.939609    63.167555    36.390591    -68988.94   -310477.61 
     100    463.46625    167227.38     72.87586    72.875861    36.358786          120   -10578.658   -10394.068   -134343.69   -1687.5713    -3345.103   -167.94355     72.87586    63.112347    36.358786   -51772.138   -310588.98 
     110    632.99222    166808.27    72.814928    72.814928    36.328386          120    8060.6133     8296.737   -90846.831   -1759.3996   -2839.8907   -273.21082    72.814928    63.059578    36.328386   -24829.827    -310978.2 
     120    613.03277    166431.99    72.760135    72.760136    36.301049          120    17681.743    17883.611    -38679.62    -1745.005   -2631.2719   -845.97406    72.760135    63.012126    36.301049   -1038.0886   -311011.17 
     130    502.38321    166115.76    72.714023    72.714023    36.278043          120    14763.742    15666.272    1731.1034   -1835.2744   -2603.6891   -748.97519    72.714023    62.972192    36.278043    10720.372   -310856.91 
     140    468.41797    165861.54    72.676911    72.676912    36.259528          120    9283.0503    9449.9331    12185.115   -1497.0788   -2623.4288   -667.08396    72.676911    62.940052    36.259528    10306.033   -310837.86 
     150    533.20991    165657.19    72.647052    72.647053     36.24463          120    2296.2489    2994.2131   -14468.413   -1711.0239   -2243.9845   -230.88986    72.647052    62.914193     36.24463   -3059.3169   -311012.75 
     160    583.69358    165479.08    72.621005    72.621006    36.231635          120   -8040.0224   -6385.7852    -53447.71   -1545.2013   -2329.3671   -137.26794    72.621005    62.891636    36.231635   -22624.506   -311173.09 
     170    540.29488     165301.4    72.595005    72.595005    36.218663          120   -12924.824   -10780.728   -82673.667   -711.93092   -2848.3419   -402.65162    72.595005    62.869119    36.218663    -35459.74   -311157.38 
     180    460.48818    165109.34    72.566878    72.566879     36.20463          120   -8670.5583   -6597.6626   -97241.294   -473.75509   -2844.8574   -424.59825    72.566878     62.84476     36.20463   -37503.172      -311063 
     190    450.19437    164902.25    72.536527    72.536527    36.189488          120   -2665.7148   -812.98478   -91273.708    124.98505   -2396.3406   -285.79926    72.536527    62.818475    36.189488   -31584.136   -311094.23 
     200    488.40036    164688.84    72.505222    72.505223     36.17387          120    1395.0894    3236.7703   -69158.832   -262.47787   -2384.6216   -214.98913    72.505222    62.791365     36.17387   -21508.991   -311221.25 
     210    483.31817    164481.44    72.474773    72.474774    36.158678          120    5161.0305    7281.5637   -43855.472   -693.19961   -2685.3231   -15.960406    72.474773    62.764995    36.158678   -10470.959   -311267.18 
     220    444.60427    164291.46    72.446859     72.44686    36.144751          120    8499.7365    9711.7238   -25847.733   -264.25154   -2648.2073   -365.43834    72.446859    62.740821    36.144751   -2545.4243   -311243.97 
     230    426.89086    164124.91    72.422369     72.42237    36.132533          120    9230.0935    9212.3497   -22144.339    27.506104   -2665.0881   -1030.8291    72.422369    62.719612    36.132533   -1233.9653    -311256.2 
     240    438.79155    163979.65    72.400997    72.400997     36.12187          120    6794.9518    6101.5688   -31297.704   -60.914747   -2714.4073   -1146.8621    72.400997    62.701103     36.12187   -6133.7279   -311324.75 
     250    447.97385    163847.16    72.381492    72.381493    36.112139          120      4471.66    3388.2718    -47519.91   -149.35826   -2592.1274   -1494.8276    72.381492    62.684212    36.112139   -13219.993   -311391.77 
     260    429.29749    163717.83    72.362444    72.362444    36.102635          120    5068.5648    3406.2761   -62386.873   -203.63587   -2310.1757   -1096.2344    72.362444    62.667715    36.102635   -17970.677   -311405.13 
     270    400.10627    163585.69     72.34297     72.34297    36.092919          120    6138.2849    4832.4402   -68927.072   -812.64043   -1733.6452   -516.39076     72.34297     62.65085    36.092919   -19318.782   -311394.82 
     280    388.05221    163449.48    72.322885    72.322886    36.082899          120    7577.6191    7622.1876   -64284.937   -580.26817   -1325.4156    -87.56377    72.322885    62.633456    36.082899    -16361.71   -311414.29 
     290    393.13991    163312.91    72.302736    72.302737    36.072846          120    11009.245    12306.761   -51537.307   -764.93836   -1478.1959    903.69803    72.302736    62.616007    36.072846   -9407.1004      -311466 
     300    389.31064    163183.29    72.283603    72.283604    36.063301          120    14564.997    15852.352   -36556.338   -572.74476   -1518.5628    685.16498    72.283603    62.599437    36.063301   -2046.3295   -311500.49 
     310    372.80717    163067.49    72.266501    72.266501    36.054768          120    15105.529     16882.85   -24917.235    207.35194   -2310.5355     281.6466    72.266501    62.584626    36.054768     2357.048   -311508.92 
     320    363.08499    162968.32    72.251847    72.251848    36.047457          120    13857.973    15214.119   -21062.019   -28.631271    -2714.172   -159.36187    72.251847    62.571936    36.047457    2670.0245   -311528.47 
     330    359.57827    162883.93    72.239375    72.239375    36.041235          120    12071.824    13785.113   -24852.754   -291.31255   -2424.3317   -524.47305    72.239375    62.561134    36.041235    334.72777   -311558.27 
     340    357.74907    162809.74    72.228404    72.228405    36.035761          120    11202.103    12920.743   -35485.558   -422.99624   -2061.7756   -811.54315    72.228404    62.551634    36.035761   -3787.5704   -311590.74 
     350    346.24541    162739.95    72.218083    72.218084    36.030612          120    11410.498    12864.072   -45749.663   -631.31677   -1339.9285   -1242.1663    72.218083    62.542695    36.030612   -7158.3641   -311604.25 
     360     329.4621    162670.32    72.207782    72.207782    36.025472          120     12304.71    14238.549   -49817.329    -1029.468   -1221.0333   -1749.2748    72.207782    62.533774    36.025472   -7758.0231   -311605.81 
     370     319.1009    162600.04     72.19738    72.197381    36.020283          120    14378.918    16549.364   -47936.012   -1241.5553   -2002.6852   -1783.9906     72.19738    62.524766    36.020283   -5669.2431   -311617.89 
     380    318.08299    162531.21    72.187193    72.187193      36.0152          120    16728.334     17691.61    -41317.28   -1012.9672   -1642.0248   -1040.8333    72.187193    62.515944      36.0152   -2299.1122   -311646.68 
     390    316.16983    162467.36    72.177738    72.177738    36.010483          120    17919.457    18995.868    -31436.78   -879.59863   -1585.1862   -888.95608    72.177738    62.507755    36.010483    1826.1815   -311673.74 
     400    304.65149    162412.21     72.16957     72.16957    36.006408          120    18681.149    19308.841   -24395.533   -500.23354   -1924.0829    -704.7714     72.16957    62.500681    36.006408    4531.4855   -311681.79 
     410    297.79965    162367.67    72.162973    72.162974    36.003117          120    18958.764    18993.459   -23075.633   -328.21912   -1802.1273   -730.69862    72.162973    62.494969    36.003117    4958.8635   -311696.96 
     420    294.52889     162333.1     72.15785    72.157851    36.000561          120    17868.458    18545.882   -25662.249   -308.32318   -1852.7377   -625.42082     72.15785    62.490532    36.000561    3584.0303   -311717.86 
     430    291.48305    162305.84    72.153812    72.153812    35.998546          120    16186.966    17420.831   -31597.566   -244.22829     -2048.59   -42.547418    72.153812    62.487034    35.998546    670.07709   -311739.97 
     440    281.91451    162282.07    72.150289    72.150289    35.996788          120    16355.046    16455.867   -37385.809   -410.77096   -2107.7556    305.83764    72.150289    62.483984    35.996788   -1524.9654   -311748.07 
     450    273.52665    162259.04    72.146876    72.146877    35.995086          120    18375.399    16582.848    -39721.96   -389.11588   -1560.3149    598.85078    72.146876    62.481028    35.995086   -1587.9042   -311756.75 
     460     269.6731    162236.58    72.143547    72.143548    35.993425          120    20530.935    18156.397   -38423.432   -150.97332   -1597.6932    268.15945    72.143547    62.478145    35.993425    87.966683   -311773.59 
     470    265.97545     162216.4    72.140556    72.140556    35.991932          120    22026.487    19425.389   -33717.496    -111.1725   -1219.5631    1.9457517    72.140556    62.475555    35.991932     2578.127   -311790.42 
     480    259.44214    162201.01    72.138274    72.138274    35.990794          120    22638.788      20397.2   -27756.214     452.4807   -1383.1535   -80.782129    72.138274    62.473578    35.990794    5093.2579   -311800.01 
     490    254.23294    162192.65    72.137035    72.137035    35.990176          120    22582.789    21286.662   -24848.131    602.73126   -1651.7322    289.81177    72.137035    62.472505    35.990176    6340.4401   -311812.28 
     500    248.24077    162192.05    72.136945    72.136946    35.990131          120    21314.559    21295.003   -24655.889    340.19538   -1743.4453    652.99127    72.136945    62.472428    35.990131    5984.5575   -311821.97 
     510    243.68596     162198.2    72.137858    72.137858    35.990586          120    20753.316    20921.976   -26993.808    240.08625    -1925.047     940.7572    72.137858    62.473218    35.990586    4893.8279   -311833.74 
     520    239.87486    162209.37    72.139513    72.139514    35.991412          120    20841.749    20620.919   -29933.352   -87.106289   -1797.8088    782.76155    72.139513    62.474652    35.991412    3843.1054   -311846.61 
     530    235.35965    162223.92    72.141671    72.141671    35.992489          120    20503.393    20661.647   -33328.146   -168.38763   -1723.4621    728.69714    72.141671     62.47652    35.992489     2612.298   -311856.77 
     540    227.73114    162240.28    72.144096    72.144096    35.993699          120    20065.387    20446.604    -34728.47   -257.87366   -1680.9059    1076.3576    72.144096     62.47862    35.993699    1927.8406   -311860.94 
     550     223.2085    162257.55    72.146656    72.146656    35.994976          120    20073.729    20522.825   -34565.199   -143.42117   -1220.1803    885.51102    72.146656    62.480837    35.994976    2010.4518   -311870.02 
     560    220.58438     162275.8    72.149359     72.14936    35.996324          120    20368.047    20991.872   -32787.281   -604.27815    -1192.145    1309.3152    72.149359    62.483178    35.996324     2857.546   -311882.51 
     570    216.78278    162295.86    72.152332    72.152333    35.997808          120    21061.505    20861.333   -30023.821   -621.51255   -1146.5087    1277.7372    72.152332    62.485753    35.997808     3966.339   -311892.04 
     580     213.3091     162318.8    72.155731    72.155732    35.999504          120    21039.315    21105.542   -28351.746    -276.9545   -585.88781    1006.7717    72.155731    62.488697    35.999504    4597.7037   -311902.02 
     590    209.00547     162345.2    72.159643    72.159643    36.001455          120    21061.782    21359.777   -26909.533   -46.919581   -588.79049    1334.2165    72.159643    62.492084    36.001455    5170.6755   -311909.73 
     600    206.49128     162375.3    72.164102    72.164103     36.00368          120    20806.326    20592.282   -28309.425    76.132559   -828.20112    1303.5895    72.164102    62.495946     36.00368    4363.0608   -311920.02 
     610    203.72803    162407.99    72.168945    72.168945    36.006096          120    19982.476    19638.347    -31277.29    174.21412   -1227.3173    450.70843    72.168945     62.50014    36.006096    2781.1775   -311929.82 
     620    199.54134    162441.41    72.173895    72.173896    36.008566          120    19466.508    19078.392   -33758.157   -178.34344   -1423.3636     -194.461    72.173895    62.504427    36.008566    1595.5809   -311936.12 
     630    197.30228    162474.16    72.178745    72.178746    36.010986          120    19503.039    18418.558   -35564.356   -670.48608   -1513.0533   -25.441577    72.178745    62.508628    36.010986    785.74703   -311945.79 
     640    192.88814     162505.4    72.183371    72.183372    36.013294          120    19186.497    18147.429   -36090.406   -549.01458   -1304.7569    553.79657    72.183371    62.512634    36.013294    414.50675   -311951.25 
     650    190.12792    162534.85    72.187732    72.187732    36.015469          120    19300.826    17872.761   -35256.481   -541.60701   -1501.6192    262.55902    72.187732     62.51641    36.015469    639.03516   -311959.49 
     660    188.17016    162563.01      72.1919      72.1919    36.017548          120    19658.555     18599.67   -32794.848   -698.35455   -1611.5957   -78.799194      72.1919     62.52002    36.017548    1821.1255   -311968.08 
     670    185.57989    162591.15    72.196065    72.196065    36.019627          120    19277.388    19136.294   -31139.943   -663.25201   -1343.6849   -3.0577786    72.196065    62.523627    36.019627    2424.5794   -311975.76 
     680    179.86103    162619.93    72.200325    72.200326    36.021752          120    18118.378    18695.601   -30750.245   -513.19107   -1225.2288    194.64647    72.200325    62.527316    36.021752    2021.2444   -311976.98 
     690    177.92795    162648.94    72.204618    72.204619    36.023894          120    17331.911    18440.322   -31987.248   -489.36316   -1216.2074    92.691495    72.204618    62.531034    36.023894    1261.6615    -311984.4 
     700    174.57953    162677.33    72.208819    72.208819     36.02599          120    17002.013    17852.866   -33744.948   -640.04968    -1226.641    420.18511    72.208819    62.534672     36.02599    369.97705   -311989.03 
     710    171.24059    162704.13    72.212784    72.212785    36.027968          120    16403.436    17459.541   -35541.184   -1028.8475   -1438.4626   -164.68482    72.212784    62.538106    36.027968   -559.40221   -311993.47 
     720    170.45346    162728.44     72.21638    72.216381    36.029762          120    15652.852    17696.158   -36807.995   -1047.2104   -1241.7922   -569.23843     72.21638    62.541221    36.029762   -1152.9949   -312002.03 
     730    168.45434    162749.82    72.219543    72.219544     36.03134          120    15844.347    17959.756   -36904.999   -692.29185    -1185.028   -70.081367    72.219543     62.54396     36.03134   -1033.6321   -312007.99 
     740    165.83167    162768.55    72.222313    72.222314    36.032722          120    16282.475    17733.888   -36477.062    -503.4602   -1551.6286   -221.32426    72.222313    62.546359    36.032722   -820.23306   -312012.76 
     750    162.90424    162785.01    72.224747    72.224748    36.033937          120    15936.422    17102.914   -35768.917    -575.2399    -1602.707    184.36549    72.224747    62.548467    36.033937   -909.86016   -312016.44 
     760    159.09507    162799.34    72.226867    72.226868    36.034994          120    16040.975    16845.113   -34767.516   -523.25193   -1723.6015    104.74454    72.226867    62.550302    36.034994   -627.14232   -312019.19 
     770    160.43922    162812.02    72.228741    72.228742    36.035929          120    16258.393    17417.516   -33880.544   -254.07609   -1500.5132    76.021887    72.228741    62.551926    36.035929   -68.211885   -312030.66 
     780    158.96549    162823.74    72.230475    72.230475    36.036794          120    16728.191    17398.563   -33973.508   -154.54607   -1064.0985    39.350441    72.230475    62.553427    36.036794    51.081798   -312036.77 
     790    155.87749    162834.65    72.232088    72.232089    36.037599          120    16373.056    17028.135   -35384.423    12.969614   -613.60011    270.14911    72.232088    62.554824    36.037599   -661.07776   -312039.37 
     800    153.38379    162844.14    72.233491    72.233491    36.038299          120    16585.135    16954.749   -36429.316   -134.93757   -619.02192   -50.670354    72.233491    62.556039    36.038299   -963.14398   -312042.53 
     810    151.47797    162851.86    72.234632    72.234633    36.038868          120    16348.023    16633.642   -37313.142      101.806   -785.06825   -714.31723    72.234632    62.557027    36.038868   -1443.8257   -312046.71 
     820    149.74389    162857.41    72.235453    72.235454    36.039278          120    15748.877    16492.734    -37543.85    280.87036    -1003.961   -472.98322    72.235453    62.557738    36.039278    -1767.413   -312050.72 
     830    148.06389    162860.65    72.235932    72.235932    36.039517          120    15812.922    16890.453   -36634.046    183.64938   -1386.2724    -194.9278    72.235932    62.558153    36.039517   -1310.2236   -312054.67 
     840    144.78879    162862.18    72.236158    72.236159     36.03963          120    16512.424    17287.001   -35704.572   -43.100915   -1356.4721    212.75079    72.236158    62.558349     36.03963   -635.04882   -312055.54 
     850    141.97576    162862.86    72.236259     72.23626     36.03968          120    16812.992    17420.011    -35029.44   -270.81887   -1064.3978    750.98859    72.236259    62.558436     36.03968   -265.47888   -312056.85 
     860    142.86331    162863.11    72.236297    72.236297    36.039699          120    16790.952    16845.033   -35294.371   -387.55072   -851.89514    314.98409    72.236297    62.558469    36.039699   -552.79526   -312065.15 
     870    141.30928    162862.74    72.236241    72.236242    36.039671          120    16623.338    16903.697   -35524.424   -158.77598   -829.54143    393.27315    72.236241    62.558421    36.039671   -665.79618   -312068.37 
     880    140.82396    162861.59    72.236071    72.236071    36.039586          120    16685.132    16953.505   -36390.029    91.330993   -799.01524     351.3878    72.236071    62.558273    36.039586   -917.13082   -312073.31 
     890    138.67357    162859.47    72.235757    72.235758     36.03943          120    16564.789    16889.243     -36526.2    103.85269   -638.18852    557.39209    72.235757    62.558002     36.03943    -1024.056   -312074.67 
     900    137.50334    162856.25    72.235282    72.235283    36.039193          120    16510.427    16612.666    -37064.65    98.799668   -1010.9515    710.12462    72.235282     62.55759    36.039193   -1313.8525   -312077.94 
     910    136.55642     162851.8    72.234624    72.234625    36.038864          120    16960.358    16824.881   -36548.312    213.86831   -889.95351    429.50339    72.234624     62.55702    36.038864    -921.0244   -312081.27 
     920    135.44399    162846.57     72.23385    72.233851    36.038478          120    17341.981    17344.318   -35693.778    531.86703   -250.69099    197.67447     72.23385     62.55635    36.038478   -335.82622   -312084.37 
     930    133.62282    162841.24    72.233063    72.233064    36.038086          120    17612.629    17538.385   -34845.427    359.08652   -274.64513    -230.5553    72.233063    62.555668    36.038086    101.86232   -312085.78 
     940    132.03957     162836.3    72.232333    72.232333    36.037721          120     17354.79    17277.029   -34283.982    274.25755   -383.99084   -266.48825    72.232333    62.555036    36.037721     115.9457   -312087.31 
     950    131.63217    162831.77    72.231663    72.231663    36.037387          120    17145.172    17649.665   -34607.866    355.93938   -537.27801   -93.291535    72.231663    62.554456    36.037387    62.323657   -312091.28 
     960    130.49121    162827.58    72.231042    72.231043    36.037077          120    17080.824    18115.728    -35360.99    294.75028    -225.4871   -426.66932    72.231042    62.553918    36.037077   -54.812773   -312093.51 
     970    129.83117    162823.54    72.230445    72.230445    36.036779          120    16899.427    18049.198    -36053.04    -37.75079   -407.87097   -146.96101    72.230445    62.553401    36.036779   -368.13817   -312096.18 
     980    129.31743    162819.37    72.229828    72.229829    36.036472          120     17217.32    17994.277   -35750.947   -247.08106   -285.14435    205.61827    72.229828    62.552867    36.036472   -179.78331   -312098.83 
     990     128.6788    162815.18     72.22921     72.22921    36.036163          120    17099.541    18287.516   -36046.786   -186.29034   -312.07895    305.46399     72.22921    62.552331    36.036163   -219.90953   -312100.88 
    1000    127.39845    162810.99     72.22859     72.22859    36.035854          120    17098.268    18231.829   -36110.963    114.46313   -300.40418    390.65757     72.22859    62.551794    36.035854   -260.28861   -312101.98 
Loop time of 372.198 on 1 procs for 1000 steps with 14848 atoms

Performance: 0.232 ns/day, 103.388 hours/ns, 2.687 timesteps/s
99.9% CPU use with 1 MPI tasks x no OpenMP threads

MPI task timing breakdown:
Section |  min time  |  avg time  |  max time  |%varavg| %total
---------------------------------------------------------------
Pair    | 303.21     | 303.21     | 303.21     |   0.0 | 81.46
Bond    | 0.00053525 | 0.00053525 | 0.00053525 |   0.0 |  0.00
Kspace  | 14.112     | 14.112     | 14.112     |   0.0 |  3.79
Neigh   | 46.179     | 46.179     | 46.179     |   0.0 | 12.41
Comm    | 0.52036    | 0.52036    | 0.52036    |   0.0 |  0.14
Output  | 0.013051   | 0.013051   | 0.013051   |   0.0 |  0.00
Modify  | 7.9879     | 7.9879     | 7.9879     |   0.0 |  2.15
Other   |            | 0.1744     |            |       |  0.05

Nlocal:    14848 ave 14848 max 14848 min
Histogram: 1 0 0 0 0 0 0 0 0 0
Nghost:    46856 ave 46856 max 46856 min
Histogram: 1 0 0 0 0 0 0 0 0 0
Neighs:    1.01088e+07 ave 1.01088e+07 max 1.01088e+07 min
Histogram: 1 0 0 0 0 0 0 0 0 0

Total # of neighbors = 10108779
Ave neighs/atom = 680.818
Ave special neighs/atom = 0
Neighbor list builds = 143
Dangerous builds = 0
PPPM initialization ...
  using 12-bit tables for long-range coulomb (../kspace.cpp:321)
  G vector (1/distance) = 0.202646
  grid = 36 50 24
  stencil order = 5
  estimated absolute RMS force accuracy = 0.000995075
  estimated relative force accuracy = 6.91042e-05
  using double precision FFTs
  3d grid and FFT values/proc = 65395 43200
Setting up Verlet run ...
  Unit style    : metal
  Current step  : 0
  Time step     : 0.001
Per MPI rank memory allocation (min/avg/max) = 152.6 | 152.6 | 152.6 Mbytes
Step Temp Volume Cella Cellb Cellc CellGamma Pxx Pyy Pzz Pxy Pxz Pyz Lx Ly Lz Press PotEng 
       0    127.39845    162810.99     72.22859     72.22859    36.035854          120    17111.108     18245.03    -36103.44    115.01811   -300.22265    390.48198     72.22859    62.551794    36.035854   -249.10083   -312101.79 
      10    126.32753    162806.71    72.227957    72.227957    36.035538          120    16834.698    18028.976   -36341.138    218.95793    304.44375    223.92143    72.227957    62.551246    36.035538   -492.48804   -312102.52 
      20    125.76192    162802.14     72.22728    72.227281      36.0352          120    17064.068    17932.158   -36255.105     153.5124    241.64859   -91.664195     72.22728     62.55066      36.0352   -419.62626    -312104.6 
      30    125.46708    162797.38    72.226576    72.226577    36.034849          120    17076.365    18346.082   -35359.655    60.545427    30.657799   -129.84502    72.226576     62.55005    36.034849    20.930557   -312106.74 
      40    125.22334    162792.86    72.225908    72.225909    36.034516          120    17042.421    18349.858   -35163.846   -49.229797   -235.92137     311.5754    72.225908    62.549472    36.034516    76.144346    -312108.5 
      50    126.00166    162788.66    72.225287    72.225288    36.034206          120    17512.202    17702.186   -35420.491    199.62525   -623.91746    221.82881    72.225287    62.548934    36.034206   -68.700954   -312111.96 
      60    125.34251    162784.63    72.224691    72.224691    36.033909          120    17744.166    17642.632   -35611.596     398.8201   -579.41623    100.09828    72.224691    62.548418    36.033909   -74.932513   -312112.64 
      70    125.04066    162780.72    72.224113    72.224114     36.03362          120    17998.617    17466.394   -35813.486    156.46392   -190.55418    299.98474    72.224113    62.547917     36.03362   -116.15851   -312113.89 
      80      124.904    162776.91    72.223549     72.22355    36.033339          120    17851.247    17810.106   -35826.883    185.73596   -207.34531     180.0811    72.223549    62.547429    36.033339   -55.176559   -312115.39 
      90    124.44998    162773.24    72.223007    72.223008    36.033069          120    17829.724    17970.085     -35648.7    377.04575    89.531141    -300.9395    72.223007     62.54696    36.033069    50.369443   -312115.63 
     100    123.90364    162769.79    72.222496    72.222497    36.032813          120    17241.609    17879.392   -35572.748    391.56903    384.07516   -558.64583    72.222496    62.546517    36.032813   -150.58234   -312115.95 
     110    124.80236    162766.41    72.221996    72.221997    36.032564          120    17177.633    18072.115   -34611.821    159.68425    531.65078   -998.28149    72.221996    62.546084    36.032564    212.64226      -312119 
     120     123.9083    162763.45    72.221558    72.221559    36.032346          120    17568.019    18300.359   -34043.973    218.37434    143.91012    -1050.822    72.221558    62.545705    36.032346    608.13511   -312117.94 
     130    123.36002    162761.31    72.221242    72.221243    36.032188          120    17893.473     17987.58   -33916.633    225.56547   -381.25991   -419.04371    72.221242    62.545431    36.032188     654.8064   -312117.46 
     140    123.84569    162760.01     72.22105     72.22105    36.032092          120    17528.699     17740.93   -34176.514    32.023395   -810.15077   -18.492344     72.22105    62.545264    36.032092    364.37157   -312118.59 
     150    124.05045    162759.24    72.220935    72.220936    36.032035          120    17327.764     18167.87   -34386.182   -317.04696   -1464.2543    -28.51697    72.220935    62.545165    36.032035    369.81749    -312118.6 
     160    123.82694    162758.92    72.220889     72.22089    36.032012          120    17369.277    18418.023   -34563.892   -270.05824   -1170.4496    497.05456    72.220889    62.545125    36.032012    407.80256   -312118.32 
     170      123.487    162759.13    72.220919     72.22092    36.032027          120    17821.418    18551.448   -34475.404   -77.766231   -700.36671    409.80788    72.220919    62.545151    36.032027    632.48758   -312117.31 
     180    125.10924    162760.06    72.221057    72.221057    36.032095          120    17977.391     19113.03   -34362.475    362.01345   -503.02845    186.00285    72.221057    62.545271    36.032095    909.31561   -312119.69 
     190    124.67377    162762.01    72.221346    72.221346     36.03224          120    17963.707    19469.935   -33763.457    575.62564   -132.42582    34.859338    72.221346    62.545521     36.03224    1223.3951   -312117.77 
     200    125.91568    162765.24    72.221823    72.221824    36.032478          120    17908.026    19089.047   -33682.356    821.44466    102.17783   -184.45415    72.221823    62.545934    36.032478    1104.9058   -312119.04 
     210    125.55247    162769.56    72.222463    72.222463    36.032797          120    17709.121    18716.776   -34368.727    670.03165    12.490406   -358.13388    72.222463    62.546488    36.032797    685.72303   -312117.37 
     220    125.87378    162774.48     72.22319     72.22319     36.03316          120     17357.73    18665.078   -34975.577     366.9034    225.22986   -132.12584     72.22319    62.547118     36.03316    349.07711   -312116.75 
     230    126.29234    162779.56    72.223942    72.223942    36.033535          120    17281.783     18393.78   -35280.135    449.44041    57.323782   -158.26999    72.223942    62.547769    36.033535    131.80944   -312115.98 
     240     126.0551    162784.56    72.224681    72.224681    36.033904          120    17416.715    18130.432   -35337.602    722.56299   -763.67175   -369.50518    72.224681    62.548409    36.033904    69.848305   -312113.59 
     250    127.38137     162789.4    72.225397    72.225397    36.034261          120    17563.432    18149.144   -35239.422    552.31911    -1215.315   -89.639511    72.225397    62.549029    36.034261    157.71817   -312114.72 
     260    129.48067    162794.21    72.226108    72.226108    36.034615          120     18055.12    18123.162   -35001.121    436.17053    -1494.896   -526.03288    72.226108    62.549645    36.034615    392.38705   -312116.73 
     270    128.69632    162799.23     72.22685     72.22685    36.034986          120    18298.268    18349.501   -35070.824    436.34949   -1235.3188   -359.33576     72.22685    62.550287    36.034986    525.64832   -312112.74 
     280    129.38914    162804.59    72.227643    72.227644    36.035381          120    18169.661    18089.344   -35044.319    20.521529   -1098.4329   -83.997034    72.227643    62.550974    36.035381    404.89545   -312111.31 
     290    128.60753    162810.15    72.228465    72.228466    36.035792          120    17764.562    17787.618   -35012.941   -241.02526   -818.24077   -343.79786    72.228465    62.551686    36.035792    179.74635   -312107.99 
     300    129.87802    162815.67    72.229282    72.229282    36.036199          120    17458.711    17469.356   -34586.404   -385.22761   -313.70231    -312.7958    72.229282    62.552393    36.036199    113.88772   -312108.24 
     310    129.82158    162821.04    72.230075    72.230076    36.036595          120     17135.49    17568.406   -34741.204    28.796263   -181.55327   -193.39915    72.230075    62.553081    36.036595    -12.43638   -312106.07 
     320    130.89482    162826.19    72.230838    72.230838    36.036975          120     17374.14    18478.716   -34679.627      95.8992   -112.71118   -139.23183    72.230838    62.553741    36.036975     391.0764   -312106.08 
     330    131.92031    162831.54    72.231628    72.231629     36.03737          120    17687.305    18807.375   -34629.894   -2.6182585    -4.909848    359.60766    72.231628    62.554426     36.03737    621.59545   -312106.38 
     340    133.19782    162837.31    72.232481    72.232482    36.037795          120    17632.879    18868.559   -35282.192    -536.2891   -361.39781    75.904704    72.232481    62.555164    36.037795    406.41546   -312106.89 
     350    134.23376    162843.29    72.233365    72.233366    36.038236          120    17420.155    18767.272   -35594.105   -868.40938   -470.70377    -140.5734    72.233365     62.55593    36.038236    197.77414   -312107.47 
     360    133.43435    162849.16    72.234234    72.234235     36.03867          120    17198.936    18074.145   -36120.583   -779.42033   -315.20804    131.02979    72.234234    62.556683     36.03867   -282.50091   -312104.68 
     370    133.21067    162854.53    72.235028    72.235028    36.039066          120    17281.655    18273.655   -35458.898   -541.39878    36.342858   -70.922896    72.235028     62.55737    36.039066    32.137274   -312103.26 
     380    134.57794    162859.69     72.23579    72.235791    36.039446          120     17501.59    18668.724   -34682.463   -578.72466    359.83397   -44.784702     72.23579     62.55803    36.039446    495.95007   -312104.11 
     390    135.28034    162865.14    72.236596    72.236597    36.039848          120    17490.783    18321.118   -34041.125   -680.83999   -190.26591   -184.88557    72.236596    62.558728    36.039848    590.25889   -312104.38 
     400    134.96975    162871.01    72.237464    72.237464    36.040281          120    17725.919    17801.542    -34065.27   -536.63745    -246.8169   -291.74444    72.237464    62.559479    36.040281    487.39697   -312103.04 
     410    134.33283    162877.16    72.238374    72.238374    36.040735          120    17698.381    17509.643   -34409.505   -266.45385    106.16634    302.53452    72.238374    62.560267    36.040735    266.17297   -312100.82 
     420     134.9661    162883.32    72.239284    72.239285    36.041189          120    17056.454    17187.798   -34511.198    113.79977   -119.31076    -35.31974    72.239284    62.561056    36.041189   -88.981759   -312101.92 
     430    135.27441    162889.12    72.240141    72.240142    36.041617          120    17073.222    17136.677   -34905.367   -49.541295   -41.908171   -231.70865    72.240141    62.561798    36.041617   -231.82269   -312102.37 
     440    135.08097    162894.38    72.240919    72.240919    36.042005          120    17060.249    17490.516   -35436.764   -115.84062    13.558329   -16.401756    72.240919    62.562472    36.042005   -295.33315   -312101.81 
     450    135.08812    162899.08    72.241614    72.241614    36.042352          120    17131.611    18017.872   -35366.444    -230.5743   -195.54976   -483.08849    72.241614    62.563073    36.042352   -72.320319    -312101.9 
     460    135.14134    162903.47    72.242263    72.242263    36.042675          120    17447.366    18392.759   -35476.067   -204.73984    -227.6041   -574.06159    72.242263    62.563635    36.042675    121.35267   -312102.72 
     470    134.70031     162907.8    72.242903    72.242904    36.042995          120    17948.986    18156.904   -35334.315   -73.282409   -228.04672   -365.24729    72.242903     62.56419    36.042995    257.19188   -312102.34 
     480    135.87745    162912.21    72.243555    72.243555     36.04332          120    17374.393     18159.98   -35210.907    177.31231   -522.05679   -629.52917    72.243555    62.564754     36.04332    107.82208   -312104.65 
     490    135.20932    162916.54    72.244195    72.244195    36.043639          120    17016.925    18178.131   -35311.028     29.22479   -634.26486   -712.85491    72.244195    62.565308    36.043639   -38.657184   -312104.51 
     500    134.48998    162920.65    72.244801    72.244802    36.043942          120    17363.556    18229.832   -35553.044      1.38484   -265.15073    -340.3898    72.244801    62.565834    36.043942     13.44799   -312104.76 
     510    134.43018    162924.58    72.245383    72.245383    36.044232          120      16832.7    18674.355   -35596.963   -172.63772   -119.23942    49.540272    72.245383    62.566337    36.044232   -29.969408   -312105.98 
     520      132.958    162928.24    72.245924    72.245924    36.044502          120    16550.102    17927.531   -36262.347   -707.16876    88.220731    181.85937    72.245924    62.566806    36.044502    -594.9049   -312104.69 
     530     133.4552    162931.04    72.246338    72.246339    36.044709          120    16724.953    17087.432   -36949.674   -997.09817   -32.373457    77.838357    72.246338    62.567165    36.044709   -1045.7631   -312107.76 
     540    132.51647    162932.56    72.246562    72.246563    36.044821          120    17111.164    17254.426   -37232.895    -1015.166   -228.92065   -137.29381    72.246562    62.567359    36.044821   -955.76861   -312107.52 
     550    131.70469    162932.91    72.246615    72.246615    36.044847          120    17610.174    17183.386   -36627.893   -326.08731   -197.59035     6.980776    72.246615    62.567404    36.044847   -611.44452   -312107.47 
     560    132.59322    162932.55    72.246562    72.246562     36.04482          120    17606.113    17023.771   -35048.711   -282.74747   -201.04423   -265.10804    72.246562    62.567358     36.04482   -139.60894    -312111.3 
     570    131.03237    162932.03    72.246484    72.246485    36.044781          120    17531.081    17293.027   -34514.657   -460.82791   -406.88589   -332.64661    72.246484    62.567291    36.044781    103.15045   -312110.31 
     580    131.54362     162931.6     72.24642    72.246421     36.04475          120    17430.182    17369.286   -35121.817   -493.78337   -137.12882    -546.4246     72.24642    62.567236     36.04475   -107.44987   -312113.15 
     590    130.56806    162931.02    72.246335    72.246336    36.044707          120    17063.957    16750.859    -35471.36   -587.46576   -281.67834   -362.96875    72.246335    62.567162    36.044707   -552.18133   -312113.19 
     600    129.79019     162929.9    72.246169    72.246169    36.044624          120    17121.611    17063.905   -35609.858   -884.57671   -114.58521   -289.78632    72.246169    62.567018    36.044624   -474.78062   -312113.15 
     610    129.21047    162928.29    72.245932    72.245932    36.044506          120    17944.459    17448.276   -35646.587   -705.96545    160.16258   -258.43225    72.245932    62.566813    36.044506   -84.617495    -312113.8 
     620    129.13703    162926.63    72.245686    72.245687    36.044383          120    18157.138    17838.254   -35596.578   -622.12313     449.1905    180.12646    72.245686      62.5666    36.044383    132.93787   -312115.55 
     630    129.48633    162925.14    72.245466    72.245467    36.044274          120    17773.566    17689.832   -35930.677   -782.88294    714.00372    358.51859    72.245466     62.56641    36.044274   -155.75979   -312118.59 
     640    129.64609     162923.5    72.245223    72.245223    36.044152          120    16876.777    17171.998   -36481.945   -768.51837     403.9712    132.06249    72.245223    62.566199    36.044152   -811.05671   -312121.19 
     650    127.93728    162921.01    72.244856    72.244856    36.043969          120    16716.065    17199.337   -36827.699   -989.35183    220.51994   -183.87131    72.244856    62.565881    36.043969   -970.76597   -312119.25 
     660    127.86943    162917.56    72.244346    72.244346    36.043715          120    16833.461    17809.779    -36055.01    -1127.018    312.50399   -361.50196    72.244346    62.565439    36.043715   -470.59018   -312120.58 
     670    128.11417    162913.72    72.243777    72.243778    36.043431          120    17320.508    18002.052   -34952.552   -1175.3205   -115.92368   -153.03095    72.243777    62.564947    36.043431    123.33588   -312122.32 
     680     127.5443    162910.09    72.243242    72.243242    36.043164          120    17552.317    17919.015   -35168.908   -843.39192   -61.157371   -294.29771    72.243242    62.564483    36.043164    100.80775   -312122.63 
     690     126.7644    162906.74    72.242746    72.242746    36.042916          120    17511.827    17973.538   -35480.347    -745.7906    562.60371   -33.386869    72.242746    62.564054    36.042916    1.6728583   -312122.71 
     700    126.60961    162903.54    72.242273    72.242274     36.04268          120    17703.371    17956.172   -35725.374   -760.17868     139.0006    375.03517    72.242273    62.563644     36.04268   -21.943929    -312123.8 
     710    125.59784    162900.43    72.241813    72.241814    36.042451          120    17655.525    17479.511    -35654.27   -883.56182    243.55056    538.86624    72.241813    62.563246    36.042451   -173.07822   -312122.78 
     720     125.8454    162897.26    72.241345    72.241345    36.042217          120    17625.881    17297.239     -35459.5   -712.17595    27.822717    419.82033    72.241345     62.56284    36.042217   -178.79332    -312124.8 
     730    126.07786    162894.03    72.240867    72.240868    36.041979          120     17646.65    17676.071   -35601.857   -593.52093    -20.89309    180.14884    72.240867    62.562427    36.041979   -93.045331   -312126.08 
     740    126.04676    162890.82    72.240392    72.240393    36.041742          120    17517.948    17712.633   -35344.584   -814.07435   -77.622677    29.138645    72.240392    62.562016    36.041742   -38.001162   -312126.69 
     750    126.46182    162887.74    72.239938    72.239938    36.041515          120    17296.657    18118.467   -34301.531   -645.36572   -470.90401   -129.00063    72.239938    62.561622    36.041515    371.19744   -312128.19 
     760    125.46554     162885.2    72.239562    72.239563    36.041328          120    17628.643    18375.199   -34103.176   -576.45004   -487.50067    144.54541    72.239562    62.561297    36.041328    633.55534    -312126.1 
     770    125.92557    162883.49    72.239309    72.239309    36.041202          120    18108.419    18275.512   -34313.916   -450.24688   -311.56022    149.43782    72.239309    62.561077    36.041202    690.00486   -312127.13 
     780    126.90846    162882.59    72.239176    72.239177    36.041135          120    18179.591    18081.338   -35122.409    112.57321   -350.37462   -131.39033    72.239176    62.560962    36.041135    379.50665   -312128.95 
     790    125.55354    162882.21     72.23912    72.239121    36.041108          120    18235.535    18143.372   -35353.263    45.369679   -318.59055   -183.83006     72.23912    62.560914    36.041108    341.88155   -312125.99 
     800    125.58829    162882.25    72.239125    72.239126     36.04111          120    18148.759    18382.321   -35650.026    -84.53177   -159.05692    34.661427    72.239125    62.560918     36.04111    293.68478   -312125.91 
     810    125.30226    162882.67    72.239188    72.239189    36.041141          120    18447.968     18699.77   -35129.705    -185.6859   -316.28553    -35.86824    72.239188    62.560973    36.041141     672.6778    -312124.6 
     820    125.77313    162883.82    72.239357    72.239358    36.041226          120    18257.961    18781.048   -34845.347   -379.33595   -329.66117   -107.35231    72.239357    62.561119    36.041226    731.22077   -312124.94 
     830    125.15274    162885.78    72.239648    72.239648    36.041371          120    18369.537    18904.005    -35045.46    -776.2567   -141.79045   -10.448512    72.239648    62.561371    36.041371    742.69395   -312123.07 
     840    127.47336    162888.53    72.240054    72.240055    36.041574          120    18286.513    18942.828   -35225.092   -820.48211   -235.85975   -318.94481    72.240054    62.561723    36.041574    668.08316   -312126.69 
     850    128.13684    162891.92    72.240555    72.240556    36.041823          120     18164.21    18051.481   -35240.512   -703.21945   -307.85638   -204.17573    72.240555    62.562157    36.041823    325.05975   -312127.01 
     860    128.43191    162895.53    72.241088    72.241089    36.042089          120    17422.155    17593.825   -35964.643   -649.50457   -41.809925    234.99608    72.241088    62.562618    36.042089   -316.22113   -312125.96 
     870    127.19659    162898.61    72.241545    72.241545    36.042317          120    16704.566    17235.732   -36696.189   -396.78712   -14.742861    82.783466    72.241545    62.563014    36.042317   -918.63051   -312122.32 
     880    127.51243     162900.6    72.241838    72.241838    36.042463          120     16588.93    17533.781   -36514.187   -110.35874    164.17619   -91.338755    72.241838    62.563267    36.042463   -797.15869   -312121.75 
     890    128.84999    162901.55    72.241979     72.24198    36.042534          120    16761.397    17598.345   -36572.559   -200.22613    111.44374   -231.43387    72.241979     62.56339    36.042534   -737.60551   -312123.05 
     900    129.43445    162901.63     72.24199    72.241991    36.042539          120     17252.09    17208.821   -35801.095   -722.22065    272.69676   -264.85924     72.24199    62.563399    36.042539   -446.72816   -312122.79 
     910    129.48715    162901.18    72.241925    72.241925    36.042507          120    17683.338    17533.229   -35194.511   -517.57932    242.11681    113.50363    72.241925    62.563343    36.042507    7.3520375   -312121.63 
     920    130.80549    162900.75    72.241861    72.241861    36.042475          120    18183.919    17948.528   -35180.446   -452.15822   -225.85259    267.97943    72.241861    62.563287    36.042475    317.33361   -312122.81 
     930    128.92554     162900.7    72.241854    72.241854    36.042471          120     18307.59    18251.931   -35085.586   -583.64784   -424.96936   -92.634054    72.241854    62.563281    36.042471    491.31142   -312118.13 
     940    130.40063    162901.17    72.241923    72.241924    36.042506          120    17766.553    17899.911   -35178.835    -515.2015   -252.32256   -347.41134    72.241923    62.563341    36.042506    162.54293   -312119.36 
     950    132.08816    162901.83     72.24202     72.24202    36.042554          120    17981.076    17795.531   -35930.418   -781.22566    11.679809    -618.8327     72.24202    62.563425    36.042554   -51.270513   -312121.49 
     960    131.39312    162902.43    72.242109    72.242109    36.042598          120    18143.691    17912.489   -35891.628   -769.97889    121.61722   -688.14472    72.242109    62.563502    36.042598    54.850648   -312118.47 
     970    131.21305    162903.07    72.242203    72.242203    36.042646          120    18353.927    17694.413   -35824.619   -647.06031    318.64371   -788.74481    72.242203    62.563584    36.042646    74.573667   -312116.69 
     980    131.99575    162903.76    72.242306    72.242306    36.042697          120    18365.306     17433.52   -35487.388   -742.50138     189.7439   -899.71507    72.242306    62.563673    36.042697    103.81288   -312116.78 
     990    132.25614     162904.6     72.24243    72.242431    36.042759          120    18757.382    17827.747   -34939.512   -707.11927    5.7991493   -823.35383     72.24243     62.56378    36.042759    548.53911   -312116.09 
    1000    133.16022    162906.02     72.24264    72.242641    36.042864          120    18907.929    17948.909   -34832.149   -528.49345    62.138336   -1018.9476     72.24264    62.563962    36.042864    674.89647   -312116.35 
    1010    132.15807    162908.14    72.242953    72.242954     36.04302          120    18648.831    17744.535   -34903.989   -372.61582   -556.44005   -1089.9242    72.242953    62.564233     36.04302    496.45902    -312114.1 
    1020    133.38368    162910.78    72.243343    72.243344    36.043215          120    18701.858     17706.67    -35156.82   -458.81594   -842.57171   -810.76179    72.243343    62.564571    36.043215    417.23619   -312115.17 
    1030    133.25551    162913.77    72.243785    72.243786    36.043435          120    18266.174    17592.504   -35756.742   -203.24212   -702.61741   -678.85728    72.243785    62.564954    36.043435    33.978551   -312114.39 
    1040     133.0016     162916.7    72.244218    72.244219    36.043651          120    17693.295    17497.954   -36005.701   -461.12557   -207.13329   -987.95647    72.244218    62.565329    36.043651   -271.48391   -312113.24 
    1050    134.30674    162919.23    72.244593    72.244593    36.043838          120    17665.156    17322.813   -35877.131   -729.63671   -276.64361   -1136.0567    72.244593    62.565653    36.043838   -296.38718    -312115.4 
    1060    133.84403    162921.34    72.244904    72.244904    36.043993          120    17705.022    17893.391   -36131.047   -736.39012    35.905516   -1359.5259    72.244904    62.565923    36.043993   -177.54445   -312114.42 
    1070    134.22447    162923.18    72.245176    72.245176    36.044129          120    17794.863    18177.645   -35600.712   -550.11192    327.48127   -1155.3233    72.245176    62.566158    36.044129     123.9321   -312114.94 
    1080    134.08019    162925.06    72.245454    72.245455    36.044268          120    17632.653    17908.965   -35036.938   -381.09764    507.43419   -1166.4846    72.245454    62.566399    36.044268    168.22651      -312115 
    1090    134.63925    162927.04    72.245747    72.245747    36.044414          120    17434.892    17223.155   -35084.666   -188.73503    312.76635   -1016.6562    72.245747    62.566652    36.044414   -142.20651   -312116.39 
    1100    134.09446    162928.76    72.246002    72.246002    36.044541          120     17576.44     16607.09    -36024.56   -247.28323   -516.19436   -596.43486    72.246002    62.566873    36.044541   -613.67682   -312115.25 
    1110     134.1281    162929.76    72.246148    72.246149    36.044614          120    17594.448    16674.428   -35966.945   -512.74366    -309.8712    -575.2693    72.246148       62.567    36.044614   -566.02298   -312115.95 
    1120    134.67001    162930.05    72.246191    72.246192    36.044635          120    17561.204    16901.478   -35724.942   -533.69978   -82.850578   -588.53117    72.246191    62.567038    36.044635   -420.75318   -312117.62 
    1130    133.72517    162929.83    72.246159     72.24616    36.044619          120    17427.137    17779.798   -35875.521   -537.73456   -154.40616    -953.6196    72.246159     62.56701    36.044619   -222.86238   -312116.56 
    1140    133.36608    162929.36     72.24609     72.24609    36.044585          120    17559.955     18198.37   -35723.809   -550.78908   -348.93959   -831.90993     72.24609     62.56695    36.044585    11.505336   -312116.92 
    1150     133.8317    162928.89     72.24602     72.24602     36.04455          120    17564.248    17957.136    -35707.28   -571.64745   -406.98716   -798.63269     72.24602    62.566889     36.04455   -61.965227   -312119.23 
    1160    133.18408    162928.37    72.245943    72.245944    36.044512          120    17022.751    17790.287   -35307.656   -501.27881   -215.56927   -781.91129    72.245943    62.566823    36.044512   -164.87287   -312119.11 
    1170    134.07511    162927.65    72.245836    72.245837    36.044458          120    16820.783    17431.328   -35374.432    -521.5433     43.95183   -590.17506    72.245836     62.56673    36.044458   -374.10698   -312122.35 
    1180    131.02216    162926.63    72.245686    72.245686    36.044383          120    17307.859    18248.608    -34682.45   -231.40111    243.47804   -450.31968    72.245686      62.5666    36.044383    291.33881   -312117.76 
    1190    131.23104    162925.92    72.245582    72.245582    36.044331          120     17355.72    18919.168   -34549.533   -543.33378    -210.0727   -35.845213    72.245582     62.56651    36.044331    575.11834   -312119.72 
    1200    131.76568    162925.93    72.245582    72.245583    36.044331          120    18167.141    18730.531   -34609.085   -663.81348   -334.27063   -22.385886    72.245582     62.56651    36.044331    762.86215   -312122.31 
    1210    131.41199    162926.78    72.245709    72.245709    36.044395          120    18321.686    18591.312   -35211.988   -302.35959   -87.773895   -250.17783    72.245709     62.56662    36.044395    567.00372   -312123.16 
    1220    130.09686    162928.27    72.245929    72.245929    36.044504          120    18152.844    18608.359   -35805.683   -224.15109   -175.31085   -448.11504    72.245929     62.56681    36.044504    318.50698   -312122.63 
    1230    129.22238    162930.09    72.246198    72.246198    36.044639          120    18047.929    18146.598    -35812.51   -213.62645   -318.43915   -1074.9838    72.246198    62.567043    36.044639      127.339   -312122.84 
    1240    128.86537       162932     72.24648    72.246481    36.044779          120    17808.533    17937.702   -35671.546   -409.30936   -671.37359   -1263.6703     72.24648    62.567288    36.044779    24.896338   -312123.09 
    1250    128.90997    162933.92    72.246764    72.246764    36.044921          120    18046.889    18261.031   -35274.395   -613.91781    -819.6051   -1212.2458    72.246764    62.567534    36.044921    344.50812   -312124.52 
    1260      129.727    162936.18    72.247097    72.247098    36.045087          120     18411.49    18464.865   -34618.369   -953.21602   -329.24754   -1145.1994    72.247097    62.567822    36.045087    752.66226   -312127.92 
    1270    129.11574    162939.22    72.247547    72.247547    36.045312          120    17909.379    18845.353   -33921.875   -743.58612   -470.70206   -715.03146    72.247547    62.568212    36.045312     944.2855   -312127.99 
    1280    127.89899    162943.18    72.248132    72.248132    36.045604          120    17459.437    18415.318   -34493.176   -829.32623   -456.24037   -498.21801    72.248132    62.568718    36.045604    460.52674    -312126.8 
    1290    127.44554    162947.55    72.248778    72.248779    36.045926          120    17530.961    17907.186    -35282.83   -1017.6611   -417.09321   -51.613742    72.248778    62.569278    36.045926    51.772248   -312127.47 
    1300    127.88376    162951.86    72.249415    72.249415    36.046244          120    18163.066    17431.714   -35816.035   -826.22419   -465.46679    -125.8274    72.249415    62.569829    36.046244   -73.751888   -312129.62 
    1310    127.61192    162955.95    72.250019     72.25002    36.046545          120    18368.427    17400.387   -35929.689   -576.27282   -421.16053   -79.730632    72.250019    62.570353    36.046545    -53.62504   -312130.61 
    1320    127.88623     162959.8    72.250588    72.250588    36.046829          120     17835.37    17850.731   -36504.387   -723.17331   -376.81634   -274.87984    72.250588    62.570845    36.046829   -272.76168   -312131.86 
    1330     127.1387    162963.22    72.251093    72.251094    36.047081          120    17916.873     17744.28   -36412.275   -535.75904   -804.27434   -478.38402    72.251093    62.571283    36.047081   -250.37414   -312130.94 
    1340    127.58281    162966.23    72.251538    72.251539    36.047303          120    17594.389    17339.658   -35607.178   -338.77789   -1180.4868   -457.12088    72.251538    62.571668    36.047303   -224.37708   -312132.36 
    1350    127.70154    162968.88     72.25193     72.25193    36.047498          120    17697.538     17006.64   -35230.682   -513.05215   -1007.9386   -730.23706     72.25193    62.572007    36.047498   -175.50151    -312133.3 
    1360     127.1799    162971.23    72.252277    72.252278    36.047672          120     17726.14    17281.457   -35250.154    -313.6391   -619.47284   -900.44562    72.252277    62.572308    36.047672   -80.852224   -312132.93 
    1370    126.04267    162973.38    72.252596    72.252596    36.047831          120    17228.932    17887.962   -35544.342    -543.2581   -836.85261   -479.19454    72.252596    62.572584    36.047831   -142.48265   -312131.62 
    1380    126.03005    162975.29    72.252878    72.252879    36.047972          120    16840.757    17807.601   -35409.154     -918.901   -610.06279   -281.76058    72.252878    62.572829    36.047972   -253.59873   -312132.26 
    1390     127.8416    162976.83    72.253106    72.253106    36.048085          120    16236.636    17963.781   -35471.108   -1037.4506   -243.94551   -398.04257    72.253106    62.573026    36.048085   -423.56357   -312135.68 
    1400    126.57592    162977.82    72.253251    72.253252    36.048158          120    16396.375    18041.129   -36182.686   -936.72089   -363.22348   -671.08717    72.253251    62.573152    36.048158   -581.72747   -312133.77 
    1410     127.0791    162978.09    72.253292    72.253292    36.048178          120    16981.934    17610.097   -36619.434   -856.29278    -333.1491   -851.62463    72.253292    62.573187    36.048178   -675.80085   -312135.17 
    1420    126.89878    162977.57    72.253215    72.253215    36.048139          120    17194.217    17092.871   -36310.189   -629.25373   -97.654494   -735.59837    72.253215     62.57312    36.048139   -674.36681   -312134.35 
    1430    126.54778    162976.31    72.253029    72.253029    36.048047          120    17200.864     17711.09   -35994.519   -576.34074   -516.58979   -857.57886    72.253029    62.572959    36.048047   -360.85475   -312133.21 
    1440    126.86431    162974.68    72.252788    72.252789    36.047927          120    17512.424    18137.971   -35775.218   -617.81898   -711.52528   -894.45599    72.252788    62.572751    36.047927   -41.607601   -312133.85 
    1450    126.34222    162973.03    72.252544    72.252544    36.047805          120     17606.22    17926.277   -35489.882   -315.88371   -724.75162   -1303.8961    72.252544    62.572539    36.047805    14.204909   -312132.36 
    1460    127.13224    162971.41    72.252305    72.252305    36.047685          120      17488.9    17533.804   -35485.015   -265.33731   -459.11038   -1304.1741    72.252305    62.572332    36.047685   -154.10341   -312133.67 
    1470    127.55864    162969.66    72.252045    72.252046    36.047556          120    17669.265    17115.203   -36058.594    170.55206   -10.067388   -1588.5831    72.252045    62.572107    36.047556   -424.70878   -312133.43 
    1480     129.0671    162967.43    72.251716    72.251716    36.047392          120    17281.828    17063.193   -36821.525    330.53812   -11.776519   -1361.1612    72.251716    62.571822    36.047392   -825.50126   -312135.38 
    1490    128.42096    162964.34    72.251259     72.25126    36.047164          120    17784.453    17010.986   -37451.342    286.86424   -208.28508   -806.24273    72.251259    62.571427    36.047164   -885.30117    -312133.4 
    1500    128.40793    162960.35     72.25067     72.25067     36.04687          120    18253.972    17122.268   -37258.008    119.18147   -447.35896   -1099.6892     72.25067    62.570916     36.04687   -627.25587   -312132.64 
    1510    127.49778    162955.77    72.249993    72.249994    36.046532          120    18180.406     17472.54   -36434.272    2.4744748   -568.90018   -1116.2899    72.249993     62.57033    36.046532   -260.44212   -312130.02 
    1520    127.61831    162951.03    72.249292    72.249293    36.046182          120    18073.977    18093.689   -36113.409   -124.64879   -530.94762    -1006.388    72.249292    62.569723    36.046182    18.085719   -312129.19 
    1530    129.00159    162946.44    72.248614    72.248614    36.045844          120    17286.892    18361.199   -35478.307   -249.47867   -36.942889   -891.74277    72.248614    62.569135    36.045844    56.594836   -312130.64 
    1540    127.62259    162942.02    72.247961    72.247961    36.045518          120      16666.6     18176.13   -35601.484    -286.2165   -128.43949   -1070.3473    72.247961     62.56857    36.045518   -252.91816   -312126.74 
    1550    129.31539    162937.49    72.247291    72.247292    36.045184          120    16801.004    18150.895   -35714.685   -703.45648   -179.13324    -1204.384    72.247291     62.56799    36.045184   -254.26194   -312128.85 
    1560    131.04607    162932.84    72.246604    72.246605    36.044841          120    17318.481    18088.659   -35249.572   -1027.2392    7.3113623   -1431.1667    72.246604    62.567395    36.044841    52.522535   -312131.18 
    1570    130.40894    162928.42    72.245951    72.245952    36.044516          120    17873.103    18316.629   -35095.244   -1058.5647    4.2747733   -1391.1549    72.245951     62.56683    36.044516    364.82912   -312128.92 
    1580    130.12311     162924.6    72.245385    72.245386    36.044233          120    18159.674    18887.164   -34883.475   -1039.7478    52.440135   -1272.2228    72.245385     62.56634    36.044233     721.1212   -312126.81 
    1590    130.64062     162921.7    72.244958    72.244958     36.04402          120    17565.355    19370.884   -34699.372   -897.40918    144.74986   -1185.6956    72.244958    62.565969     36.04402    745.62215   -312126.55 
    1600     131.0648    162919.72    72.244665    72.244666    36.043874          120    17308.233     18905.32   -35142.224   -863.03009   -44.027345   -1108.3106    72.244665    62.565716    36.043874    357.10969    -312125.9 
    1610    132.41965    162918.29    72.244453    72.244453    36.043768          120    17800.443    18365.914    -34945.84   -483.61461    156.00443   -1247.0123    72.244453    62.565532    36.043768    406.83911   -312127.59 
    1620    130.92991    162917.38    72.244319     72.24432    36.043702          120    18482.386    17839.035   -34503.016   -254.72588   -116.55488   -992.96687    72.244319    62.565417    36.043702    606.13484   -312123.97 
    1630    132.15004    162917.22    72.244295    72.244296    36.043689          120    19012.998    17601.684   -34363.898   -422.40786   -395.01714   -1050.4153    72.244295    62.565395    36.043689    750.26148   -312125.21 
    1640    132.76047    162917.92    72.244399    72.244399    36.043741          120    18908.831    17689.405   -34348.737   -259.83335   -143.82309    -993.3081    72.244399    62.565485    36.043741    749.83302   -312125.35 
    1650    133.40895     162919.5    72.244632    72.244632    36.043857          120    18727.449    17838.271   -34274.854   -114.55718   -558.30584   -575.27886    72.244632    62.565687    36.043857    763.62219   -312125.62 
    1660    132.09575    162921.86    72.244981    72.244981    36.044032          120    17747.987    18000.605   -34932.966   -168.33029   -1059.1976   -585.05364    72.244981    62.565989    36.044032    271.87526   -312122.77 
    1670     131.8773    162924.51    72.245373    72.245373    36.044227          120    17584.796    18452.333   -35428.978    197.16701   -862.11402   -850.84784    72.245373    62.566329    36.044227    202.71703   -312121.84 
    1680    133.74862    162927.34    72.245791    72.245791    36.044435          120    18045.094    18831.288   -35809.057    186.49417   -511.91963   -877.69351    72.245791    62.566691    36.044435    355.77527   -312124.88 
    1690     133.9985    162930.46    72.246252    72.246252    36.044665          120      18014.8    18781.844   -35920.931    223.81495   -257.67548   -1039.0381    72.246252     62.56709    36.044665    291.90474   -312124.71 
    1700    133.27814    162933.84    72.246751    72.246752    36.044915          120      18036.1    18677.635   -35405.594    33.110937   -335.25056   -1476.6503    72.246751    62.567523    36.044915    436.04707   -312122.82 
    1710    133.96605     162937.6    72.247308    72.247309    36.045193          120    18353.205     18891.01    -35733.54   -181.41589   -705.05035   -1310.4925    72.247308    62.568005    36.045193    503.55838   -312124.44 
    1720    133.20207    162941.82    72.247932    72.247932    36.045504          120    18256.199    18878.013   -35748.664   -219.54707   -831.39623   -669.00175    72.247932    62.568545    36.045504    461.84931   -312122.97 
    1730    133.73566    162946.39    72.248607    72.248607    36.045841          120    17608.464    18105.659    -35817.08   -572.00618   -530.20789   -381.12902    72.248607    62.569129    36.045841   -34.318896    -312124.6 
    1740    132.33257    162950.81    72.249259     72.24926    36.046166          120    17427.018    17820.893   -36081.535   -643.98932   -891.51164   -399.15481    72.249259    62.569695    36.046166   -277.87423   -312122.36 
    1750    133.64961    162954.76    72.249844    72.249844    36.046458          120    17272.876    17998.322   -36301.717   -431.14977   -174.94437   -192.58022    72.249844    62.570201    36.046458   -343.50607   -312125.22 
    1760    131.93692    162958.23    72.250357    72.250358    36.046714          120    17945.477     18090.04   -36103.498   -465.96436   -162.65651   -182.23635    72.250357    62.570645    36.046714    -22.66051   -312122.34 
    1770    132.55429    162961.52    72.250842    72.250843    36.046956          120    17769.141     17896.42    -35871.95   -407.21055   -269.46125   -781.35642    72.250842    62.571066    36.046956   -68.795991   -312124.08 
    1780    132.61778    162964.63    72.251302    72.251303    36.047185          120    17350.134    18162.212   -35694.058   -351.17885   -205.20444   -1063.8106    72.251302    62.571464    36.047185   -60.570369   -312125.12 
    1790    132.50051    162967.61    72.251742    72.251743    36.047405          120    17549.752    18383.261   -35370.425   -307.99742   -410.49516   -1140.3168    72.251742    62.571845    36.047405    187.52915   -312125.28 
    1800    132.42914    162970.71    72.252201    72.252201    36.047634          120    17714.299    18916.823   -35175.178   -59.471485   -241.30196   -898.33029    72.252201    62.572242    36.047634    485.31479   -312126.41 
    1810    132.37228    162974.26    72.252725    72.252726    36.047895          120    18281.879    18534.037   -35178.924    165.97014   -505.90328   -1047.8213    72.252725    62.572696    36.047895    545.66397   -312127.51 
    1820    131.44876    162978.34    72.253329     72.25333    36.048197          120    18839.123    17586.285   -34812.352    105.77919   -623.80553   -1111.6435    72.253329    62.573219    36.048197    537.68553   -312126.88 
    1830    131.74658    162982.93    72.254007    72.254007    36.048535          120    19173.397    17298.866   -35009.769   -410.12089   -785.60545   -1010.8913    72.254007    62.573806    36.048535     487.4978   -312128.35 
    1840    131.55733     162987.9    72.254742    72.254742    36.048901          120    18350.366    17595.742   -35702.083   -464.03306   -817.88872   -1344.7492    72.254742    62.574442    36.048901    81.341332   -312129.69 
    1850    131.05382    162992.84    72.255471    72.255471    36.049265          120    17770.865    17598.942   -35986.403    -243.6176   -1004.3518   -995.97941    72.255471    62.575074    36.049265   -205.53174   -312130.26 
    1860    130.17321    162997.42    72.256147    72.256148    36.049603          120    17809.987    17597.133   -35823.445   -140.46225   -903.84197   -789.65194    72.256147     62.57566    36.049603    -138.7752   -312129.73 
    1870    128.94001    163001.67    72.256775    72.256776    36.049916          120    17624.153    17817.416   -36149.606   -315.21294   -728.82286   -635.29195    72.256775    62.576204    36.049916   -236.01215   -312128.09 
    1880    128.55492     163005.5    72.257342    72.257343    36.050199          120    17567.159    17663.466   -35936.225    52.613497   -724.23635   -631.92751    72.257342    62.576695    36.050199   -235.19984   -312128.53 
    1890    129.82304    163008.94     72.25785    72.257851    36.050452          120    17636.238    17544.955   -35683.185   -58.908427   -578.30956     -994.739     72.25785    62.577135    36.050452    -167.3308   -312131.89 
    1900    129.94942    163012.07    72.258312    72.258313    36.050683          120    17487.469    17703.139   -35700.667   -131.89536    -239.8942   -1091.5146    72.258312    62.577535    36.050683   -170.01986   -312133.71 
    1910    129.42716    163014.89    72.258729     72.25873    36.050891          120    17564.592    17716.289   -35924.066   -20.915014    -398.2291   -1381.9525    72.258729    62.577896    36.050891   -214.39523    -312134.1 
    1920    129.23967    163017.39    72.259099      72.2591    36.051075          120    17742.489    17441.933    -35475.95   -421.36512    -578.1568   -1567.5563    72.259099    62.578216    36.051075   -97.175866   -312134.86 
    1930    128.07077    163019.69    72.259438    72.259439    36.051245          120    17666.866     16922.68   -35304.572   -292.78831   -418.23135   -1689.5513    72.259438     62.57851    36.051245    -238.3418   -312133.41 
    1940    127.56149     163021.6    72.259721    72.259721    36.051385          120    17635.791    16511.061    -36171.79   -98.867703   -776.86919   -1143.0394    72.259721    62.578754    36.051385   -674.97941   -312133.47 
    1950    127.85624    163022.71    72.259885    72.259885    36.051467          120    17696.913    16740.126   -36307.912    -197.8382    -982.5439   -1180.6624    72.259885    62.578896    36.051467   -623.62432    -312135.2 
    1960     127.1287    163023.02     72.25993    72.259931     36.05149          120    17173.997    16828.144   -36213.367   -283.32409   -761.67911   -1283.8597     72.25993    62.578936     36.05149    -737.0752   -312134.92 
    1970    126.36063    163022.45    72.259846    72.259847    36.051448          120    16649.184    16762.706   -36115.452   -332.96642   -1033.7171   -1000.5656    72.259846    62.578863    36.051448   -901.18727   -312133.97 
    1980    125.97501    163020.84    72.259608    72.259608    36.051329          120    16407.148    16802.266    -36339.77   -679.54465   -121.02104   -978.95255    72.259608    62.578657    36.051329    -1043.452   -312133.58 
    1990    126.18767    163018.05    72.259196    72.259196    36.051123          120    16457.795     16927.58   -36221.548   -713.17916     89.36467   -580.72847    72.259196      62.5783    36.051123   -945.39098   -312134.62 
    2000    127.26545     163014.3    72.258643    72.258643    36.050848          120    17036.867     17762.18   -35516.273   -787.77564    211.79097   -964.86055    72.258643    62.577821    36.050848   -239.07521   -312136.81 
    2010    126.24081    163010.35    72.258059     72.25806    36.050556          120    17542.812    18111.218   -35376.164   -552.02851    248.71958   -891.46049    72.258059    62.577315    36.050556    92.621984   -312134.99 
    2020    127.31144    163006.57    72.257501    72.257501    36.050278          120    17239.848    18249.843   -35849.157   -469.87337   -63.419475   -707.74945    72.257501    62.576832    36.050278   -119.82181   -312137.14 
    2030    126.33276    163002.79    72.256941    72.256941    36.049999          120    17251.189    18101.064   -35980.019   -218.08253   -299.60637    -718.2618    72.256941    62.576347    36.049999   -209.25515   -312135.46 
    2040    127.37764    162998.92    72.256369    72.256369    36.049713          120    17704.819    18289.116   -35694.176   -279.29136   -286.41377   -560.44976    72.256369    62.575852    36.049713    99.919694   -312137.57 
    2050    127.42202    162995.25    72.255827    72.255827    36.049443          120    17667.695    18558.138   -35751.233   -351.67475   -448.82896   -472.90826    72.255827    62.575382    36.049443     158.1998   -312137.49 
    2060    127.40875    162991.87    72.255328    72.255329    36.049194          120    17670.038    18481.483   -35627.261   -549.00259   -659.08101   -519.76739    72.255328    62.574951    36.049194     174.7531   -312136.72 
    2070    127.12587    162988.81    72.254876    72.254876    36.048968          120    17465.099    18548.882   -35494.708   -710.34675   -574.86991   -342.77711    72.254876    62.574558    36.048968    173.09089   -312136.08 
    2080    127.19105    162986.01    72.254461    72.254462    36.048761          120    17282.748    18053.354   -35514.829   -809.21636   -377.61854    -233.5753    72.254461    62.574199    36.048761   -59.575653   -312135.57 
    2090    127.13803    162983.24    72.254053    72.254053    36.048558          120    17419.141     17585.11   -35201.562    -613.1916   -521.05552   -626.89324    72.254053    62.573846    36.048558   -65.770082   -312135.01 
    2100    128.51541    162980.47    72.253643    72.253644    36.048353          120     17748.14    17478.905   -35669.886   -554.95441   -435.51848   -926.66704    72.253643    62.573491    36.048353   -147.61378   -312136.99 
    2110    129.40659    162977.64    72.253224    72.253225    36.048144          120    18006.647    17604.461   -35759.479   -433.44866   -587.14142   -976.20543    72.253224    62.573128    36.048144   -49.456837   -312137.83 
    2120    128.39624    162974.85    72.252813    72.252813    36.047939          120    18408.713    17620.004   -35550.048   -325.84268   -1196.2865   -748.81709    72.252813    62.572772    36.047939    159.55633   -312134.71 
    2130    128.45029     162972.3    72.252435    72.252436    36.047751          120    17739.078    17627.313   -35163.474   -357.05448   -1038.3804   -975.62171    72.252435    62.572445    36.047751    67.638888   -312133.53 
    2140    129.35901    162969.92    72.252084    72.252085    36.047576          120    17422.826    17478.521   -34573.146   -211.91336   -989.95795   -1104.2105    72.252084    62.572141    36.047576    109.40012   -312134.57 
    2150    128.61441    162967.74    72.251761    72.251762    36.047414          120    17885.019    17466.379   -35041.401   -115.46867    -866.2651   -1319.5953    72.251761    62.571862    36.047414    103.33252   -312131.97 
    2160    129.03267    162965.72    72.251463    72.251464    36.047266          120    18105.199    17437.533   -35533.412   -24.057504   -926.07615    -1032.339    72.251463    62.571603    36.047266    3.1068009   -312131.74 
    2170    129.66016    162963.76    72.251173    72.251174    36.047121          120     18163.01     17296.61   -35662.713   -40.133811   -883.80257   -568.24458    72.251173    62.571352    36.047121    -67.69749   -312132.23 
    2180    130.22535    162961.79    72.250883    72.250884    36.046976          120    18497.068    17115.057   -35516.193   -181.75699   -729.54358   -714.26073    72.250883    62.571101    36.046976    31.977189    -312132.2 
    2190    130.43953    162959.94    72.250609     72.25061     36.04684          120    18461.011    17397.892   -35123.541   -186.58801   -828.84652   -694.55836    72.250609    62.570864     36.04684    245.12095    -312131.7 
    2200     130.3404    162958.42    72.250385    72.250385    36.046727          120    18184.736     17341.78   -34554.498   -201.53196   -951.38147   -809.58099    72.250385    62.570669    36.046727    324.00588   -312130.29 
    2210    130.27745    162957.29    72.250218    72.250219    36.046644          120    18000.328    17458.831   -34965.225   -316.59067   -1062.8846   -917.11777    72.250218    62.570525    36.046644    164.64445   -312129.18 
    2220    130.57353    162956.42    72.250089    72.250089     36.04658          120    18027.835      17720.5   -35285.445   -441.50504    -1006.915   -1182.0235    72.250089    62.570413     36.04658    154.29653   -312128.59 
    2230    132.16408    162955.74    72.249989     72.24999     36.04653          120    18470.937    17944.426   -35890.718   -540.53028   -926.00589   -688.81442    72.249989    62.570327     36.04653    174.88157   -312130.82 
    2240    131.68276    162955.29    72.249922    72.249922    36.046497          120    18212.986    18222.581   -35848.254   -579.70154   -843.99993   -493.40381    72.249922    62.570268    36.046497     195.7713    -312128.7 
    2250    132.50327    162955.07     72.24989    72.249891    36.046481          120    18205.237    18001.111   -35603.641   -649.89501   -695.37065   -316.38378     72.24989    62.570241    36.046481    200.90245   -312128.98 
    2260    131.56324    162955.12    72.249896    72.249897    36.046484          120    18518.769    17659.178   -35477.939   -493.50056   -1038.5364   -634.62292    72.249896    62.570246    36.046484    233.33572   -312126.54 
[...]
   99200    128.82613    163099.39    72.271213    72.271214    36.057119          120     19058.98    17950.921   -34719.667   -487.93907   -281.36217   -1666.7169    72.271213    62.588707    36.057119    763.41113   -312153.38 
   99210    129.96561    163092.26    72.270159    72.270159    36.056593          120    18895.677    18135.163   -34421.319   -212.88684   -3.8518306   -1124.6504    72.270159    62.587794    36.056593    869.84023   -312155.02 
   99220    129.12375    163086.18    72.269262    72.269262    36.056146          120    19143.881    18401.641   -33857.316   -264.84423   -388.97548   -584.31677    72.269262    62.587017    36.056146     1229.402   -312153.92 
   99230    130.83403    163081.55    72.268577    72.268578    36.055804          120    19345.589    18874.514   -34578.782   -134.44051   -294.31997   -472.34587    72.268577    62.586424    36.055804    1213.7737   -312157.51 
   99240    130.05083    163078.33    72.268102    72.268103    36.055567          120    19065.662    18627.519   -35239.517    45.032205   -476.37732   -447.08426    72.268102    62.586013    36.055567    817.88809   -312155.87 
   99250    129.21557    163076.17    72.267782    72.267783    36.055407          120    19073.747    18723.186   -35217.016   -127.45721    10.098759   -411.50978    72.267782    62.585736    36.055407    859.97225   -312154.62 
   99260    130.02978    163075.02    72.267612    72.267613    36.055323          120    19041.098    19013.682   -35672.186   -50.221465     100.6135   -618.80264    72.267612    62.585589    36.055323    794.19783   -312156.28 
   99270    129.46445    163074.82    72.267584    72.267584    36.055308          120    19915.088    18401.475   -35761.603    26.451607    1.9036934   -711.37748    72.267584    62.585564    36.055308    851.65314   -312155.25 
   99280    129.72796    163075.68     72.26771     72.26771    36.055371          120    20159.674    18431.963   -35260.661   -446.42428    30.918033   -935.29643     72.26771    62.585673    36.055371    1110.3251   -312155.53 
   99290    129.72909    163077.83    72.268028    72.268029     36.05553          120    19723.418    18620.303   -34825.909   -190.32265   -468.40963   -975.77563    72.268028    62.585949     36.05553     1172.604   -312155.77 
   99300    130.52238    163081.36    72.268549     72.26855     36.05579          120    18882.408    18850.568   -34950.976   -211.52492   -360.54663   -790.43508    72.268549      62.5864     36.05579     927.3334   -312157.12 
   99310    129.62516    163085.98    72.269231    72.269232     36.05613          120    18335.193    18528.768   -35443.849   -411.58698   -603.72855   -851.38921    72.269231    62.586991     36.05613    473.37058   -312155.74 
   99320    129.58404    163091.16    72.269996    72.269997    36.056512          120    18144.474    17744.824   -35970.192   -223.90869   -845.41977   -867.04593    72.269996    62.587654    36.056512   -26.964587   -312155.15 
   99330    129.27227    163096.31    72.270757    72.270757    36.056892          120      18321.8    17277.888   -36648.095   -139.52772   -680.87447   -1377.9976    72.270757    62.588312    36.056892   -349.46895   -312154.77 
   99340    130.30315    163101.09    72.271464    72.271464    36.057244          120    18481.452    17242.798   -35923.667   -358.46293   -684.87122   -1328.8297    72.271464    62.588924    36.057244   -66.472542   -312156.62 
   99350    129.52486    163105.79    72.272158    72.272158     36.05759          120    18585.408    17814.323   -35659.805   -605.59323   -313.30098   -977.83864    72.272158    62.589525     36.05759     246.6419   -312154.96 
   99360    130.92999    163110.77    72.272893    72.272893    36.057957          120    18295.402    18598.077   -35853.269   -494.38718   -282.02942   -776.00588    72.272893    62.590162    36.057957    346.73662   -312157.45 
   99370    130.51372    163116.13    72.273685    72.273686    36.058352          120    18221.001    17907.934   -35716.289   -645.18587   -475.71028   -627.05042    72.273685    62.590848    36.058352     137.5486   -312156.31 
   99380    129.79406    163121.67    72.274503    72.274504    36.058761          120    18416.373     17493.66   -35839.266   -494.66193   -323.00824   -811.66822    72.274503    62.591557    36.058761     23.58909   -312154.46 
   99390    129.30953    163127.27    72.275331    72.275331    36.059173          120    18585.273    17637.936   -35540.151   -349.95941    144.23318    -383.5781    72.275331    62.592273    36.059173    227.68584   -312153.44 
   99400    130.14979    163133.14    72.276196    72.276197    36.059605          120    19064.289     17610.26   -35448.365     66.31322    72.137614   -702.71847    72.276196    62.593023    36.059605    408.72793   -312154.87 
   99410    130.00378    163139.49    72.277135    72.277136    36.060074          120    19444.736    18091.201   -35353.925     118.0128   -167.94797   -910.83955    72.277135    62.593836    36.060074    727.33716   -312153.93 
   99420     130.9047    163146.67    72.278195    72.278196    36.060603          120    19450.793     18403.93   -35513.976    86.897954   -274.02955   -882.87079    72.278195    62.594754    36.060603    780.24888   -312154.64 
   99430    130.49616    163154.78    72.279393    72.279393      36.0612          120    18913.114    18812.622   -35492.767    40.717498   -98.956557   -1287.5826    72.279393    62.595791      36.0612    744.32308   -312153.68 
   99440    131.37234     163163.7     72.28071     72.28071    36.061857          120    18362.959    18305.278   -36033.204    -591.6559   -581.49057   -1117.2103     72.28071    62.596931    36.061857    211.67757   -312155.54 
   99450    129.56725    163172.91     72.28207     72.28207    36.062536          120    18099.608    17731.991   -35799.456   -757.28123   -480.23486   -870.65095     72.28207    62.598109    36.062536    10.714499    -312151.6 
   99460    130.63602    163182.13    72.283431    72.283431    36.063215          120    18501.894    17650.606   -36275.505   -571.18965    113.44896   -589.64485    72.283431    62.599288    36.063215   -41.001472   -312153.48 
   99470    130.60228    163191.31    72.284787    72.284788    36.063891          120    18448.226    17769.527   -35849.192   -705.05777    279.70018   -666.53607    72.284787    62.600463    36.063891    122.85384   -312152.78 
   99480    131.33819    163200.59    72.286157    72.286158    36.064575          120    18257.209    17479.295   -35945.307   -692.59443   -302.48173   -839.81623    72.286157    62.601649    36.064575     -69.6012   -312153.68 
   99490    131.38182    163209.78    72.287513    72.287514    36.065252          120     17992.25    17276.037   -36234.898   -511.22147   -262.89159   -177.12254    72.287513    62.602823    36.065252   -322.20371   -312153.39 
   99500    131.21504    163218.58    72.288813    72.288814      36.0659          120    17727.074    17294.604   -36563.948   -423.55549    87.886747   -410.70799    72.288813    62.603949      36.0659   -514.09014   -312152.56 
   99510    131.66265    163226.72    72.290015    72.290015      36.0665          120    17400.318    17062.885   -37187.176   -308.82909    102.84632   -688.68048    72.290015     62.60499      36.0665   -907.99095   -312153.56 
   99520    130.18608    163233.83    72.291064    72.291064    36.067023          120    17024.055    17443.551   -37000.199   -66.676522   -438.76387   -733.48183    72.291064    62.605898    36.067023   -844.19745    -312150.5 
   99530    131.35992    163239.88    72.291958    72.291958    36.067469          120    17046.065    17240.319   -37172.787   -199.92257   -187.17242   -685.43887    72.291958    62.606673    36.067469   -962.13442   -312152.31 
   99540    131.38019    163244.82    72.292687    72.292687    36.067833          120    17053.164    17217.983   -36701.961   -126.45826   -360.85925    -1017.139    72.292687    62.607304    36.067833   -810.27128   -312152.41 
   99550    130.12571    163248.79    72.293272    72.293272    36.068125          120    17866.391    16935.077   -36653.111    30.369907   -14.494265   -1189.6704    72.293272    62.607811    36.068125   -617.21416   -312149.86 
   99560    131.64529    163252.02     72.29375     72.29375    36.068363          120    18437.726    16950.286   -36236.112    256.08818    -154.2884   -1085.1243     72.29375    62.608224    36.068363   -282.69977   -312152.83 
   99570    130.15064    163254.87     72.29417     72.29417    36.068573          120    17908.312    17083.907   -36017.296   -55.321949   -123.26525   -1072.2626     72.29417    62.608588    36.068573   -341.69246   -312150.16 
   99580     132.1504    163257.29    72.294527    72.294527    36.068751          120     17391.16    16963.209   -36060.938   -339.67763   -631.16865   -1122.4796    72.294527    62.608897    36.068751    -568.8565   -312153.92 
   99590    131.53761    163259.05    72.294786    72.294787     36.06888          120    17566.874    17013.115   -36434.769   -477.70163   -477.95453   -1156.4601    72.294786    62.609122     36.06888    -618.2601   -312152.85 
   99600    130.25783    163260.02     72.29493    72.294931    36.068952          120    17781.198    16597.265   -37157.287    -829.7406   -177.52946   -648.81605     72.29493    62.609247    36.068952   -926.27459   -312150.32 
   99610     130.9086    163259.97    72.294922    72.294923    36.068948          120    17874.221    16732.602    -36475.21   -726.64744   -199.68562   -1210.3777    72.294922     62.60924    36.068948   -622.79595   -312152.14 
   99620    130.39573    163259.11    72.294795    72.294796    36.068885          120    17935.531    16685.081   -36571.357   -299.06464   -456.94789   -1176.0626    72.294795     62.60913    36.068885   -650.24841   -312151.31 
   99630     130.8057    163257.48    72.294556    72.294556    36.068765          120    17792.868      17140.3   -36570.638   -329.53668   -891.49863   -938.98609    72.294556    62.608923    36.068765   -545.82321   -312152.87 
   99640    130.82114    163255.19    72.294217    72.294217    36.068596          120    17656.702    16993.068   -36313.378   -385.53497   -436.55693   -993.68911    72.294217    62.608629    36.068596   -554.53578   -312153.12 
   99650    130.25358    163252.25    72.293783    72.293784     36.06838          120     17184.73    16933.013   -35602.753   -486.93623   -452.14295   -1312.9428    72.293783    62.608254     36.06838   -495.00308   -312152.35 
   99660    130.17528    163248.69    72.293258    72.293258    36.068117          120    17081.638    17264.258   -36443.382   -915.51642    47.637656   -1213.8824    72.293258    62.607798    36.068117   -699.16223   -312153.22 
   99670    130.38147    163244.33    72.292615    72.292615    36.067797          120    17718.176    17256.544   -36672.435   -945.58983    200.60009   -1289.4517    72.292615    62.607242    36.067797   -565.90478    -312153.6 
   99680    129.75161    163239.29    72.291871    72.291871    36.067425          120    17904.358    17201.594   -36605.104   -644.08539    143.31202   -960.86959    72.291871    62.606597    36.067425   -499.71708   -312152.88 
   99690    130.06282     163233.6    72.291031    72.291031    36.067006          120    17650.836    17000.945   -37240.065   -516.56258   -165.38734   -697.47619    72.291031     62.60587    36.067006   -862.76132   -312154.15 
   99700    130.09762    163226.92    72.290045    72.290045    36.066515          120     17892.99    16878.494   -37396.156    -277.5158   -91.117412   -1013.6052    72.290045    62.605016    36.066515   -874.89077   -312154.87 
   99710    130.01908    163219.25    72.288911    72.288912    36.065949          120    17892.494    17486.158   -36958.888   -18.681187   -186.90836    -384.8443    72.288911    62.604034    36.065949   -526.74502   -312155.15 
   99720    130.15337    163210.93    72.287683    72.287684    36.065336          120    17898.443    17425.293    -36298.28   -65.125467   -445.09698   -685.91913    72.287683    62.602971    36.065336   -324.84803   -312155.43 
   99730    129.59263    163202.23    72.286399    72.286399    36.064695          120    18471.117    17238.078   -36238.684   -188.11774   -314.71756   -575.67096    72.286399    62.601858    36.064695   -176.49638   -312154.72 
   99740    129.02732    163193.32    72.285084    72.285084    36.064039          120     18730.13    17438.382   -35991.601   -195.90165   -258.44424   -765.89234    72.285084     62.60072    36.064039    58.970639   -312153.99 
   99750    129.53143     163184.5    72.283781    72.283781    36.063389          120    18715.838    17423.283   -35191.707   -11.918253   -92.281206   -759.13095    72.283781    62.599591    36.063389    315.80456   -312155.42 
   99760    129.98939    163176.03     72.28253    72.282531    36.062765          120    18358.818    17889.476    -35479.21    59.986997    206.55437   -367.91728     72.28253    62.598508    36.062765     256.3613   -312156.11 
   99770    129.01339    163167.86    72.281325    72.281325    36.062164          120    18224.834    17917.062   -36137.529    79.553841    197.23508    -680.6521    72.281325    62.597464    36.062164    1.4556369   -312154.23 
   99780    128.77275     163159.7    72.280119     72.28012    36.061563          120    18107.649     17633.47   -36634.393   -281.90078    536.31705   -699.11677    72.280119     62.59642    36.061563   -297.75822    -312154.6 
   99790    129.40893    163151.25    72.278871    72.278872     36.06094          120    17698.079    17739.571   -35970.786   -450.31479    266.06997   -760.67184    72.278871     62.59534     36.06094   -177.71182   -312155.95 
   99800    128.29778    163142.59    72.277593    72.277594    36.060302          120    18038.227    17588.374   -35703.585   -416.57151   -296.37027   -396.12335    72.277593    62.594233    36.060302    -25.66147   -312153.48 
   99810    130.40232     163133.9     72.27631     72.27631    36.059662          120    17809.214    18098.347   -35514.635   -489.25429   -156.51364   -291.08505     72.27631    62.593121    36.059662    130.97541   -312157.12 
   99820    129.59508    163125.38    72.275051    72.275052    36.059034          120     17819.73     18763.44   -35424.055   -362.03252   -481.76035   -835.79954    72.275051    62.592031    36.059034    386.37148   -312155.71 
   99830    128.89066    163117.35    72.273866    72.273866    36.058442          120    18018.912    18952.777   -34435.485   -112.09742   -438.05555   -649.68223    72.273866    62.591004    36.058442    845.40158   -312154.07 
   99840    129.95838    163110.34     72.27283     72.27283    36.057926          120    18462.108    18772.185   -33514.205    -93.58937   -289.29599   -252.74766     72.27283    62.590107    36.057926    1240.0295   -312156.32 
   99850    130.91144    163104.79     72.27201     72.27201    36.057517          120    19135.632    18331.735   -33973.569   -333.50896   -140.97461   -321.36734     72.27201    62.589397    36.057517    1164.5995   -312157.92 
   99860    129.33986    163100.61    72.271393    72.271394    36.057209          120    19305.292     18207.18   -35329.481   -274.11004   -225.36618   -783.67721    72.271393    62.588863    36.057209    727.66361   -312155.09 
   99870    129.67224    163097.32    72.270906    72.270906    36.056966          120    18864.767    17719.892   -35853.635   -108.71177   -419.07438   -880.05729    72.270906    62.588441    36.056966    243.67479   -312155.68 
   99880    128.71469    163094.37    72.270471    72.270472    36.056749          120    19057.653    18000.499   -36066.647   -160.34593   -468.89047   -1048.0272    72.270471    62.588065    36.056749    330.50181   -312153.49 
   99890    130.03342    163091.82    72.270094    72.270094    36.056561          120    19141.345    18447.365   -35927.005   -150.49549    262.94869   -1417.4589    72.270094    62.587738    36.056561    553.90121   -312155.47 
   99900    129.93709    163089.97    72.269821    72.269822    36.056425          120    20268.531    18903.743   -35760.972   -212.13964    -509.4849   -1398.6868    72.269821    62.587502    36.056425    1137.1008   -312155.13 
   99910    129.77404    163089.45    72.269744    72.269745    36.056386          120    20496.212    18195.254   -34603.291   -516.94977   -950.39115   -1130.7684    72.269744    62.587435    36.056386    1362.7249   -312154.83 
   99920    129.96738    163090.52    72.269902    72.269903    36.056465          120    19984.698    18082.682   -34386.187   -465.93286   -791.94439   -792.74784    72.269902    62.587572    36.056465    1227.0643   -312154.82 
   99930     130.3219     163093.1    72.270283    72.270284    36.056655          120    19873.981    18645.446   -34206.851   -288.20698   -890.64297   -528.00632    72.270283    62.587902    36.056655    1437.5254    -312155.3 
   99940    129.25024     163097.3    72.270903    72.270904    36.056964          120    19414.836    18883.482    -35228.56   -452.67538    -618.3542   -664.05311    72.270903    62.588439    36.056964    1023.2527   -312153.27 
   99950    130.84838    163102.71    72.271702    72.271703    36.057363          120    18871.491    18572.862   -35651.067   -681.40235   -418.39245    -495.7908    72.271702    62.589131    36.057363    597.76194   -312155.81 
   99960    130.62061    163108.84    72.272609    72.272609    36.057815          120    18707.054      18520.3    -36173.27   -1027.9548   -153.39047   -55.394956    72.272609    62.589916    36.057815    351.36142   -312155.34 
   99970    130.43354    163115.46    72.273587    72.273587    36.058303          120    19078.857     18623.51   -35666.322   -905.03803   -247.03355    -308.0848    72.273587    62.590763    36.058303    678.68141   -312155.18 
   99980    130.56786    163122.89    72.274684    72.274684    36.058851          120    19551.616    18593.968   -35198.034   -527.27516    290.38919   -350.06457    72.274684    62.591713    36.058851    982.51671   -312155.54 
   99990    129.62775    163131.43    72.275945    72.275945     36.05948          120    18899.086    18592.259   -35712.342   -349.16426    675.83821   -406.08595    72.275945    62.592805     36.05948    593.00123   -312153.11 
  100000    130.23735    163140.68    72.277311    72.277311    36.060161          120    18159.106    17956.111   -35391.184   -327.74287    112.99802   -526.64381    72.277311    62.593988    36.060161    241.34413   -312154.44 
Loop time of 35028.5 on 1 procs for 100000 steps with 14848 atoms

Performance: 0.247 ns/day, 97.301 hours/ns, 2.855 timesteps/s
99.9% CPU use with 1 MPI tasks x no OpenMP threads

MPI task timing breakdown:
Section |  min time  |  avg time  |  max time  |%varavg| %total
---------------------------------------------------------------
Pair    | 30140      | 30140      | 30140      |   0.0 | 86.04
Bond    | 0.058224   | 0.058224   | 0.058224   |   0.0 |  0.00
Kspace  | 1417.5     | 1417.5     | 1417.5     |   0.0 |  4.05
Neigh   | 2603.9     | 2603.9     | 2603.9     |   0.0 |  7.43
Comm    | 46.05      | 46.05      | 46.05      |   0.0 |  0.13
Output  | 1.3084     | 1.3084     | 1.3084     |   0.0 |  0.00
Modify  | 802.61     | 802.61     | 802.61     |   0.0 |  2.29
Other   |            | 16.87      |            |       |  0.05

Nlocal:    14848 ave 14848 max 14848 min
Histogram: 1 0 0 0 0 0 0 0 0 0
Nghost:    46808 ave 46808 max 46808 min
Histogram: 1 0 0 0 0 0 0 0 0 0
Neighs:    1.00878e+07 ave 1.00878e+07 max 1.00878e+07 min
Histogram: 1 0 0 0 0 0 0 0 0 0

Total # of neighbors = 10087828
Ave neighs/atom = 679.407
Ave special neighs/atom = 0
Neighbor list builds = 8052
Dangerous builds = 0
 
All done!
Total wall time: 9:50:02
