LAMMPS (16 Mar 2018)
Reading data file ...
  triclinic box = (0 0 0) to (9.208 7.97436 18.376) with tilt (-4.604 0 0)
  1 by 1 by 1 MPI processor grid
  reading atoms ...
  116 atoms
Finding 1-2 1-3 1-4 neighbors ...
  special bond factors lj:   0          0          0         
  special bond factors coul: 0          0          0         
  0 = max # of 1-2 neighbors
  0 = max # of 1-3 neighbors
  0 = max # of 1-4 neighbors
  1 = max # of special neighbors
Replicating atoms ...
  triclinic box = (0 0 0) to (73.664 63.7949 36.752) with tilt (-36.832 0 0)
  1 by 1 by 1 MPI processor grid
  14848 atoms
Finding 1-2 1-3 1-4 neighbors ...
  special bond factors lj:   0          0          0         
  special bond factors coul: 0          0          0         
  0 = max # of 1-2 neighbors
  0 = max # of 1-3 neighbors
  0 = max # of 1-4 neighbors
  1 = max # of special neighbors
  Time spent = 0.0026381 secs
PPPM initialization ...
WARNING: System is not charge neutral, net charge = -0.2048 (../kspace.cpp:302)
  using 12-bit tables for long-range coulomb (../kspace.cpp:321)
  G vector (1/distance) = 0.201681
  grid = 36 50 24
  stencil order = 5
  estimated absolute RMS force accuracy = 0.00105653
  estimated relative force accuracy = 7.33721e-05
  using double precision FFTs
  3d grid and FFT values/proc = 65395 43200
Neighbor list info ...
  update every 1 steps, delay 0 steps, check yes
  max neighbors/atom: 2000, page size: 100000
  master list distance cutoff = 15.3
  ghost atom cutoff = 15.3
  binsize = 7.65, bins = 15 9 5
  3 neighbor lists, perpetual/occasional/extra = 3 0 0
  (1) pair morse, perpetual
      attributes: half, newton on
      pair build: half/bin/newton/tri
      stencil: half/bin/3d/newton/tri
      bin: standard
  (2) pair buck, perpetual, copy from (1)
      attributes: half, newton on
      pair build: copy
      stencil: none
      bin: none
  (3) pair lj/cut/coul/long, perpetual, copy from (1)
      attributes: half, newton on
      pair build: copy
      stencil: none
      bin: none
Setting up Verlet run ...
  Unit style    : metal
  Current step  : 0
  Time step     : 0.001
Per MPI rank memory allocation (min/avg/max) = 145.7 | 145.7 | 145.7 Mbytes
Step Temp Volume Cella Cellb Cellc CellGamma Pxx Pyy Pzz Pxy Pxz Pyz Lx Ly Lz Press PotEng 
       0          120    172711.88       73.664    73.664001       36.752          120   -210092.37   -210107.11   -281093.59    10.748259   -3.0549548    4.0798881       73.664    63.794896       36.752   -233764.36   -309191.56 
      10    274.10502    172542.34    73.639889    73.639889    36.739971          120   -213478.12   -213556.84   -260924.14    80.218958   -9.0629066   -118.49315    73.639889    63.774015    36.739971    -229319.7   -309540.58 
      20    522.52025    172046.77    73.569319    73.569319    36.704762          120   -212544.59   -212217.79   -201278.61    19.728209   -182.86788   -249.50615    73.569319      63.7129    36.704762   -208680.33   -310108.51 
      30    481.31853    171291.63    73.461525    73.461526    36.650983          120   -191363.06   -190863.86   -119102.99   -199.24852   -639.69002   -318.10338    73.461525    63.619548    36.650983   -167109.97   -310151.77 
      40     251.1403     170425.6    73.337512    73.337512     36.58911          120    -155149.7      -154967   -39994.499   -422.19498   -1050.8434    -374.8686    73.337512    63.512149     36.58911   -116703.74   -309808.25 
      50    322.92608    169618.28    73.221527    73.221527    36.531244          120   -114504.02    -114576.7   -3457.3119   -510.13553   -1135.9548   -550.42214    73.221527    63.411703    36.531244   -77512.676   -310001.82 
      60    648.42306    168951.41    73.125442    73.125442    36.483306          120   -81349.557    -81231.71   -36284.903   -576.17062    -2065.572   -436.93704    73.125442    63.328491    36.483306   -66288.723   -310681.74 
      70    847.18506    168401.34    73.045995    73.045996    36.443669          120   -54487.115   -54027.476    -97720.31   -1148.3453   -2477.3304   -283.68789    73.045995    63.259688    36.443669   -68744.967   -311159.32 
      80    696.84887    167912.98    72.975316    72.975316    36.408406          120   -34568.806   -34721.396   -139733.46   -1639.8066   -2973.1784    184.40683    72.975316    63.198478    36.408406   -69674.554   -310967.32 
      90    421.30367    167448.28    72.907934    72.907935    36.374788          120   -24405.672    -24805.25   -152887.33    -1834.746   -3581.3344    372.32667    72.907934    63.140124    36.374788   -67366.084   -310508.65 
     100    454.21631    166992.96     72.84179    72.841791    36.341788          120   -8815.3712   -8591.6661   -132154.75   -1673.6807   -3347.3694   -75.982628     72.84179    63.082841    36.341788   -49853.928   -310624.91 
     110    622.15227    166560.11    72.778801    72.778801    36.310362          120    9703.0757    9999.2615   -88601.539   -1739.9942   -2883.0791   -197.02254    72.778801    63.028291    36.310362   -22966.401   -311012.45 
     120    598.84106    166175.65    72.722761    72.722761    36.282403          120    18981.635    19205.042   -36554.511   -1738.2568   -2712.3772   -762.56136    72.722761    62.979759    36.282403    544.05547   -311040.84 
     130    488.04496     165857.9    72.676379     72.67638    36.259262          120     15686.12     16629.08    3603.3782   -1820.0686   -2716.6944   -716.19117    72.676379    62.939591    36.259262    11972.859    -310886.9 
     140    456.62275    165607.91    72.639847    72.639847    36.241036          120    10037.295    10296.481    13504.627   -1515.1947   -2756.8311   -604.13477    72.639847    62.907953    36.241036    11279.468    -310873.3 
     150    522.41671     165411.5    72.611118    72.611119    36.226703          120    3114.1586    3784.0541   -13685.684   -1685.9063   -2401.8379   -178.35369    72.611118    62.883074    36.226703   -2262.4905   -311051.38 
     160    570.89414    165242.54    72.586387    72.586387    36.214364          120   -7187.3793   -5465.2435   -52938.817   -1538.9801   -2463.0363   -40.014492    72.586387    62.861655    36.214364   -21863.813   -311209.44 
     170    524.84405     165073.1    72.561568    72.561569    36.201981          120   -11965.151   -9793.4245   -81817.459   -712.62104   -2937.6451   -294.90412    72.561568    62.840162    36.201981   -34525.345   -311189.49 
     180     445.6596    164887.49    72.534363    72.534363    36.188408          120   -7605.2463   -5479.4578   -95899.509   -484.52413   -2887.5939   -328.16771    72.534363    62.816601    36.188408   -36328.071   -311096.64 
     190    437.14831    164685.43    72.504721    72.504721    36.173619          120   -1488.5611    483.93581    -89425.59     22.09216   -2457.8044   -182.27397    72.504721    62.790931    36.173619   -30143.405   -311131.54 
     200    474.45483    164476.55    72.474055    72.474055     36.15832          120    2492.7811    4488.5711   -66993.191   -340.63033   -2390.4153   -148.91813    72.474055    62.764373     36.15832   -20003.946   -311257.15 
     210    468.01223     164274.1    72.444306    72.444307    36.143478          120    6015.2502    8325.2855     -41721.1   -690.68616    -2706.505    138.96171    72.444306     62.73861    36.143478   -9126.8548   -311300.94 
     220    428.19215    164090.01    72.417235    72.417236    36.129972          120    9324.6947    10553.365    -24036.66   -227.78831   -2709.0388   -101.40208    72.417235    62.715166    36.129972   -1386.2002   -311275.99 
     230    411.55978    163930.41    72.393749    72.393749    36.118254          120    9959.9175    10057.627   -20813.725    4.0048502   -2842.5911   -721.74668    72.393749    62.694826    36.118254   -265.39379   -311290.25 
     240    423.71604    163792.72    72.373475    72.373476    36.108139          120     7608.038    7008.6668     -30572.5   -86.501826   -2906.5694   -817.62617    72.373475    62.677269    36.108139   -5318.5984    -311359.9 
     250    432.60426    163667.61    72.355044    72.355044    36.098943          120    5324.1316    4272.6883   -47100.826   -184.66623   -2779.5387   -1191.7791    72.355044    62.661306    36.098943   -12501.335      -311426 
     260    412.36089    163544.76    72.336936    72.336936    36.089909          120     6004.048    4550.1045    -61841.37   -225.54365   -2443.4126   -767.15266    72.336936    62.645625    36.089909   -17095.739   -311436.15 
     270    383.47486    163418.04    72.318247    72.318248    36.080585          120    7268.4184    6133.6784   -67885.542    -819.0747   -1855.9565   -242.75025    72.318247     62.62944    36.080585   -18161.148   -311426.29 
     280    373.58143    163286.53    72.298843    72.298843    36.070904          120    8863.9633    9091.2717   -62733.676   -755.34022   -1386.1141    26.269404    72.298843    62.612635    36.070904   -14926.147   -311449.58 
     290    377.65446    163154.64    72.279373    72.279373     36.06119          120    12319.096    13960.288   -49461.436   -887.04939   -1335.7001    832.21292    72.279373    62.595774     36.06119   -7727.3509   -311499.54 
     300    373.15968    163030.55    72.261043    72.261044    36.052045          120    15571.191     17408.64   -34523.124   -715.37437    -1421.377     532.4472    72.261043      62.5799    36.052045   -514.43101   -311532.27 
     310     356.6521    162921.45     72.24492    72.244921    36.044001          120    15911.232     18240.82   -23362.214    20.581259   -2335.5939    285.31641     72.24492    62.565937    36.044001    3596.6124   -311540.34 
     320    347.19303    162829.99    72.231399    72.231399    36.037255          120    14465.977    16190.869   -20203.919   -64.254292   -2922.9486   -9.9163576    72.231399    62.554227    36.037255    3484.3088   -311560.36 
     330    343.04669    162753.74    72.220123    72.220123    36.031629          120    12600.642    14250.657   -24540.191    -341.6803   -2486.8606   -418.15519    72.220123    62.544462    36.031629    770.36927   -311588.85 
     340    341.37036    162687.39    72.210307    72.210308    36.026732          120    11759.709    13126.148   -35225.616   -461.89693   -2106.9977   -557.95018    72.210307    62.535961    36.026732   -3446.5867   -311621.42 
     350    329.63843    162624.74    72.201037    72.201037    36.022107          120    12207.216    13159.147   -45061.325   -651.68845   -1396.8101   -1232.6494    72.201037    62.527933    36.022107   -6564.9873   -311633.87 
     360    313.36439    162561.61    72.191693    72.191694    36.017446          120     13391.02    14571.992   -48593.453   -1182.0772   -1183.4153   -1647.4472    72.191693    62.519841    36.017446   -6876.8138   -311635.89 
     370    303.71962    162497.51    72.182203    72.182203    36.012711          120    15266.045     16503.72   -46511.535   -1482.5723   -1657.8727    -1546.769    72.182203    62.511622    36.012711   -4913.9231   -311648.84 
     380    302.76129     162434.7    72.172901    72.172901     36.00807          120    17456.996    17910.382   -40130.498    -1012.823   -1402.1056   -945.68583    72.172901    62.503566     36.00807   -1587.7066   -311677.49 
     390    299.56747     162376.9     72.16434    72.164341    36.003799          120    18309.892    19143.559   -30539.159   -837.71764   -1276.1125   -807.07562     72.16434    62.496153    36.003799    2304.7639    -311701.4 
     400    289.45416    162328.01    72.157097    72.157097    36.000185          120     18988.64    19451.465   -23768.197   -692.56159    -1831.007   -653.85923    72.157097    62.489879    36.000185    4890.6361   -311711.43 
     410    284.33562    162289.97     72.15146    72.151461    35.997373          120    19384.752    19100.623   -22872.831   -515.14597   -1986.8582   -922.17267     72.15146    62.484998    35.997373    5204.1813   -311729.96 
     420    279.36814    162262.02    72.147318    72.147318    35.995306          120    18490.045    18719.387   -25920.087   -445.57915    -2404.127   -910.43066    72.147318    62.481411    35.995306    3763.1152   -311747.03 
     430    276.37411    162241.29    72.144244    72.144245    35.993773          120    16834.977    17292.278   -31826.463    -559.0671   -2707.1712   -396.55639    72.144244    62.478749    35.993773    766.93087   -311768.84 
     440    266.81195    162223.59    72.141622    72.141622    35.992464          120    16719.845    16357.679   -37619.313   -525.23927   -2503.7227   -242.66878    72.141622    62.476478    35.992464   -1513.9298   -311776.18 
     450    258.17182    162205.96    72.139008    72.139008     35.99116          120    18220.941     16448.62   -39942.527   -464.51557   -1856.3584    200.21512    72.139008    62.474214     35.99116   -1757.6555      -311784 
     460    254.15943    162188.08    72.136357    72.136357    35.989837          120    20419.169    17849.127   -38568.428   -292.88848   -1680.3209    15.713578    72.136357    62.471918    35.989837   -100.04392   -311799.56 
     470    250.73867     162171.9    72.133957    72.133958     35.98864          120    22220.428    19035.931   -33483.068   -94.109297   -1369.5154   -229.99301    72.133957     62.46984     35.98864    2591.0972   -311816.39 
     480    244.06149    162160.41    72.132255    72.132256    35.987791          120     23059.37    20098.612   -27371.218    217.73038    -1387.064   -63.814428    72.132255    62.468366    35.987791    5262.2549   -311825.44 
     490    239.43301    162156.27     72.13164    72.131641    35.987484          120    22962.589    21076.681   -24832.094    157.39516   -1611.9277    145.27527     72.13164    62.467834    35.987484    6402.3919   -311838.14 
     500    235.70189    162160.14    72.132214    72.132215    35.987771          120    21588.921    20839.462   -25401.055   -21.234639   -2052.4487    420.81809    72.132214     62.46833    35.987771     5675.776   -311851.37 
     510    230.34217    162170.53    72.133755    72.133756     35.98854          120    20486.136    20160.174   -28217.136   -2.4198918    -2313.608    508.39182    72.133755    62.469665     35.98854    4143.0579   -311861.76 
     520    225.38923    162185.11    72.135917    72.135918    35.989618          120    20348.428    19574.707   -31507.545    -367.8087   -2466.1913    161.22811    72.135917    62.471537    35.989618    2805.1969   -311871.99 
     530    221.17452     162201.9    72.138405    72.138406     35.99086          120    20175.097    19527.282   -34627.895   -607.47245   -2412.0461    250.57293    72.138405    62.473692     35.99086    1691.4947   -311882.59 
     540    214.24329    162219.39    72.140998    72.140999    35.992153          120    19671.475    19502.346   -36006.277   -716.81372   -2240.5671    492.03814    72.140998    62.475938    35.992153    1055.8482   -311887.02 
     550    209.98449    162236.77    72.143574    72.143575    35.993438          120    19504.583    19286.436   -35562.769   -473.67522   -1797.8439    234.73372    72.143574    62.478169    35.993438    1076.0833   -311896.05 
     560    206.61188    162254.13    72.146148    72.146148    35.994722          120    19732.539    19701.127   -33611.999   -323.04057   -1461.1859    750.20984    72.146148    62.480397    35.994722    1940.5556   -311906.44 
     570    202.80664    162272.52    72.148873    72.148873    35.996082          120    20353.194    20184.831   -30978.345    1.2146517   -1675.4669    711.63193    72.148873    62.482757    35.996082    3186.5602   -311915.55 
     580    199.20842    162293.28     72.15195    72.151951    35.997617          120      20402.4    20475.741   -29402.446    261.76714   -1253.9217    756.69883     72.15195    62.485422    35.997617    3825.2316    -311924.4 
     590    195.88035    162317.08    72.155477    72.155478    35.999377          120    20309.138    20546.133   -28606.549    381.59826   -1015.6841    974.89334    72.155477    62.488477    35.999377    4082.9072   -311933.22 
     600    193.22726    162343.93    72.159456    72.159456    36.001362          120    20240.096     19852.77   -30110.316    202.00659   -1025.8099    904.36805    72.159456    62.491922    36.001362    3327.5166   -311943.24 
     610    190.59158    162372.73    72.163721    72.163722     36.00349          120    19575.037    19114.286   -32906.985    199.68402   -1248.4966    387.30477    72.163721    62.495617     36.00349     1927.446   -311952.36 
     620    186.28072     162401.7    72.168013    72.168014    36.005631          120      18751.7     18943.14   -35326.641    148.19897   -1634.3662   -202.48979    72.168013    62.499334    36.005631    789.39973   -311957.76 
     630    184.11822    162429.48    72.172129     72.17213    36.007685          120    18722.199     18712.21   -36528.656   -414.26245   -1510.0187   -423.44147    72.172129    62.502898    36.007685    301.91782   -311967.42 
     640    180.53556    162455.58    72.175993    72.175994    36.009613          120    18646.841    18614.655    -36430.79    -473.0504    -1508.638    5.6823449    72.175993    62.506244    36.009613    276.90201   -311973.95 
     650    176.86036    162480.08    72.179621    72.179622    36.011423          120    18751.393    18397.933   -35489.373   -682.21857   -1640.6205     -509.049    72.179621    62.509386    36.011423    553.31798   -311979.58 
     660    174.08972    162503.53    72.183094    72.183094    36.013155          120      18968.3    19108.073   -33508.536   -683.15906   -1949.0807   -608.84054    72.183094    62.512394    36.013155    1522.6126   -311986.27 
     670    170.08946     162527.1    72.186583    72.186584    36.014896          120    18944.072    19379.116   -31949.476   -406.00708   -1434.3267   -209.60042    72.186583    62.515416    36.014896    2124.5702   -311990.85 
     680    166.93748    162551.47    72.190191    72.190192    36.016696          120    18160.936    19063.346   -31710.972    -190.8287   -1361.7261   -6.4599728    72.190191     62.51854    36.016696    1837.7701   -311996.49 
     690    164.31994    162576.32     72.19387    72.193871    36.018532          120    17639.712    18827.975   -32681.563   -187.92797    -1011.941    238.37274     72.19387    62.521726    36.018532    1262.0412   -312002.14 
     700    163.30421    162600.91     72.19751     72.19751    36.020347          120    17188.824    18414.344   -34414.388   -464.40401   -999.34466    592.35604     72.19751    62.524878    36.020347    396.26019   -312010.55 
     710    160.01366    162624.26    72.200965    72.200966    36.022072          120    16661.421    18129.319   -35597.764   -859.40167   -1524.9688    91.734598    72.200965    62.527871    36.022072   -269.00784   -312014.32 
     720     158.2335    162645.64    72.204129    72.204129     36.02365          120    16442.597    17963.354   -36162.159   -1122.1342   -1395.0615   -218.47932    72.204129    62.530611     36.02365   -585.40251   -312021.12 
     730    155.67585    162664.81    72.206967    72.206967    36.025066          120    16669.948    17736.461   -36078.191   -864.67515   -1269.2823   -132.91089    72.206967    62.533068    36.025066   -557.26058   -312025.43 
     740     154.7265    162681.95    72.209502    72.209503    36.026331          120    16824.513    17160.934   -35798.437   -542.00024   -1005.7221   -132.29192    72.209502    62.535264    36.026331   -604.33033   -312033.18 
     750     152.2026    162697.18    72.211756    72.211756    36.027455          120    16681.457    17041.211   -35103.665   -585.54957   -1068.2107    246.87815    72.211756    62.537215    36.027455   -460.33216   -312037.14 
     760    149.03167    162710.81    72.213772    72.213773    36.028461          120    16618.272    17312.353   -34262.137   -801.99323   -1277.5941    597.30281    72.213772    62.538962    36.028461   -110.50421   -312040.02 
     770    147.61544    162723.35    72.215627    72.215628    36.029387          120    16553.195    17961.047   -34113.772   -681.44273   -1003.7374    726.75146    72.215627    62.540568    36.029387    133.48977   -312046.38 
     780    145.28802    162735.18    72.217377    72.217378     36.03026          120    16762.985    18095.796   -34694.594   -795.66284   -724.35608     308.0519    72.217377    62.542084     36.03026    54.728965   -312049.75 
     790     144.4419     162746.2    72.219008    72.219008    36.031073          120    15986.648    17449.811   -35449.884   -736.56734   -373.87877    471.57922    72.219008    62.543496    36.031073   -671.14156   -312056.41 
     800    142.08794    162755.67    72.220407    72.220408    36.031771          120    15566.312     16945.47   -36456.417   -476.67082   -235.15436    801.54096    72.220407    62.544708    36.031771   -1314.8783   -312059.61 
     810    140.05039    162762.91    72.221479     72.22148    36.032306          120    15041.532    17467.541   -37027.705    28.519629   -506.34334    821.35436    72.221479    62.545636    36.032306   -1506.2111   -312063.25 
     820    138.16203    162767.83    72.222206    72.222207    36.032669          120    14706.941    17812.949   -36837.734    55.947302    -536.7674     672.1159    72.222206    62.546266    36.032669   -1439.2815   -312066.41 
     830    137.44286    162770.64    72.222622    72.222622    36.032876          120    14927.827    17445.476   -36007.399   -258.14053   -743.65464    369.77745    72.222622    62.546626    36.032876   -1211.3654   -312072.15 
     840    134.20904     162771.8    72.222793    72.222794    36.032962          120    15585.147    17577.727   -34987.673   -732.31992   -817.07745    671.12239    72.222793    62.546774    36.032962   -608.26646   -312072.66 
     850    132.14845     162772.1    72.222838    72.222839    36.032984          120    16614.535    17524.931   -34892.096   -969.04668   -778.25797    933.10472    72.222838    62.546813    36.032984   -250.87644   -312075.12 
     860    130.04138    162772.02    72.222826    72.222827    36.032978          120     16744.85     17075.47   -35099.667    -1025.016   -915.36717    894.31259    72.222826    62.546803    36.032978   -426.44923   -312077.21 
     870    129.28889    162771.39    72.222733    72.222734    36.032932          120    16368.855    16822.631   -35240.801   -600.59499   -695.05938    868.89173    72.222733    62.546722    36.032932   -683.10507   -312081.29 
     880    128.52651    162769.97    72.222523    72.222523    36.032827          120    16307.347    16967.409   -35701.789   -243.45196   -571.86829    885.69065    72.222523     62.54654    36.032827    -809.0109   -312085.24 
     890    128.24607    162767.59    72.222171    72.222172    36.032652          120    16335.695    16502.416   -35879.776   -79.298795   -612.51838    915.38809    72.222171    62.546236    36.032652   -1013.8883   -312090.14 
     900     125.9338    162764.13     72.22166     72.22166    36.032396          120    16465.569    16362.392   -35609.605    57.686146   -650.68452    535.22162     72.22166    62.545793    36.032396   -927.21482   -312090.79 
     910    124.71503    162759.72    72.221007    72.221007     36.03207          120    16542.166    16405.765   -35635.737    397.90831   -655.53085    136.30713    72.221007    62.545227     36.03207   -895.93553   -312093.33 
     920    124.63613    162754.48    72.220232    72.220233    36.031684          120    16839.613    16489.936   -35099.396    353.21874   -432.27757   -80.042958    72.220232    62.544556    36.031684   -589.94883   -312098.03 
     930    123.54228     162748.8    72.219392    72.219393    36.031265          120    16449.434    16975.537   -34778.752    115.98411   -478.83952   -70.750741    72.219392    62.543829    36.031265   -451.26043   -312100.09 
     940    121.17381    162742.85    72.218512    72.218512    36.030826          120    15924.959    16821.171   -34803.259    140.90139   -741.52765    129.96738    72.218512    62.543067    36.030826    -685.7095   -312100.17 
     950     120.3121    162736.41     72.21756     72.21756    36.030351          120    15585.237     17222.91   -35036.813   -94.309019   -834.83141   -89.370431     72.21756    62.542242    36.030351   -742.88883   -312102.72 
     960     120.8772    162729.46    72.216531    72.216532    36.029838          120    15883.408    17959.118   -35441.919   -208.50277   -721.09655    295.08328    72.216531    62.541351    36.029838   -533.13111   -312107.52 
     970    119.77906    162722.25    72.215465    72.215465    36.029306          120    16381.362    18109.398   -35446.659   -45.759158    -786.5942    491.24649    72.215465    62.540428    36.029306   -318.63301   -312108.88 
     980    120.33166    162715.09    72.214405    72.214405    36.028777          120     16886.27    18069.423   -34985.528    219.66386   -920.84409    660.74328    72.214405     62.53951    36.028777   -9.9447682   -312113.65 
     990    118.96656    162708.31    72.213403    72.213403    36.028277          120    16875.746     18435.22   -34970.477    533.12011   -929.03397    537.17139    72.213403    62.538642    36.028277     113.4964   -312114.31 
    1000    117.07226    162702.02    72.212471    72.212472    36.027812          120     16747.23    18484.372    -35893.26    300.78863   -807.86696    183.16809    72.212471    62.537835    36.027812   -220.55271   -312113.92 
Loop time of 294.945 on 1 procs for 1000 steps with 14848 atoms

Performance: 0.293 ns/day, 81.929 hours/ns, 3.390 timesteps/s
100.0% CPU use with 1 MPI tasks x no OpenMP threads

MPI task timing breakdown:
Section |  min time  |  avg time  |  max time  |%varavg| %total
---------------------------------------------------------------
Pair    | 238.66     | 238.66     | 238.66     |   0.0 | 80.92
Bond    | 0.00019813 | 0.00019813 | 0.00019813 |   0.0 |  0.00
Kspace  | 10.959     | 10.959     | 10.959     |   0.0 |  3.72
Neigh   | 38.575     | 38.575     | 38.575     |   0.0 | 13.08
Comm    | 0.42279    | 0.42279    | 0.42279    |   0.0 |  0.14
Output  | 0.010652   | 0.010652   | 0.010652   |   0.0 |  0.00
Modify  | 6.2123     | 6.2123     | 6.2123     |   0.0 |  2.11
Other   |            | 0.1083     |            |       |  0.04

Nlocal:    14848 ave 14848 max 14848 min
Histogram: 1 0 0 0 0 0 0 0 0 0
Nghost:    46895 ave 46895 max 46895 min
Histogram: 1 0 0 0 0 0 0 0 0 0
Neighs:    1.01152e+07 ave 1.01152e+07 max 1.01152e+07 min
Histogram: 1 0 0 0 0 0 0 0 0 0

Total # of neighbors = 10115247
Ave neighs/atom = 681.253
Ave special neighs/atom = 0
Neighbor list builds = 139
Dangerous builds = 0
PPPM initialization ...
  using 12-bit tables for long-range coulomb (../kspace.cpp:321)
  G vector (1/distance) = 0.202657
  grid = 36 50 24
  stencil order = 5
  estimated absolute RMS force accuracy = 0.000994401
  estimated relative force accuracy = 6.90573e-05
  using double precision FFTs
  3d grid and FFT values/proc = 65395 43200
Setting up Verlet run ...
  Unit style    : metal
  Current step  : 0
  Time step     : 0.001
Per MPI rank memory allocation (min/avg/max) = 152.6 | 152.6 | 152.6 Mbytes
Step Temp Volume Cella Cellb Cellc CellGamma Pxx Pyy Pzz Pxy Pxz Pyz Lx Ly Lz Press PotEng 
       0    117.07226    162702.02    72.212471    72.212472    36.027812          120     16760.26    18498.216    -35885.28    301.25826    -807.7438    182.96588    72.212471    62.537835    36.027812   -208.93474   -312113.72 
      10    117.23992    162695.83    72.211555    72.211556    36.027355          120    16733.982    18429.059   -36290.327   -277.32463   -114.47537    91.279484    72.211555    62.537042    36.027355     -375.762   -312116.83 
      20    116.71234    162689.55    72.210627    72.210627    36.026892          120    16935.607    18155.646   -35825.455   -604.06363   -217.83297   -256.89037    72.210627    62.536238    36.026892   -244.73413   -312118.31 
      30    114.77437    162683.36    72.209711    72.209711    36.026435          120    17536.628    18215.445   -35303.985   -635.04706   -176.53582   -49.280064    72.209711    62.535444    36.026435    149.36262   -312117.03 
      40    115.07769    162677.67    72.208869     72.20887    36.026015          120    17696.969    18330.387    -35049.02   -536.75666   -553.57498    278.59821    72.208869    62.534716    36.026015    326.11211   -312119.99 
      50    115.04378    162672.69    72.208132    72.208132    36.025647          120    17846.477    18048.312   -34949.669   -324.13887   -538.57555    576.72386    72.208132    62.534077    36.025647    315.03996   -312122.03 
      60    113.82997     162668.4    72.207497    72.207497     36.02533          120    17459.734    18236.882   -34511.317   -133.50425   -495.07755    725.32709    72.207497    62.533527     36.02533    395.09974   -312121.38 
      70    114.33549    162664.79    72.206963    72.206963    36.025064          120    16937.777    18187.032   -34742.609   -48.586368   -1074.5186    405.00994    72.206963    62.533065    36.025064    127.40005   -312123.84 
      80    113.86952    162661.54    72.206482    72.206483    36.024824          120    16612.626    18139.897   -35175.955   -147.43324   -1169.9058    71.739583    72.206482    62.532649    36.024824   -141.14435   -312124.71 
      90    113.77871    162658.29    72.206002    72.206002    36.024584          120    16714.326    17349.754   -35228.021   -255.05635    -861.2689   -487.06065    72.206002    62.532232    36.024584   -387.98052   -312125.83 
     100      113.563    162654.77    72.205481    72.205481    36.024324          120    16812.967    17449.816   -35134.448   -37.049414   -332.22868   -575.70516    72.205481    62.531781    36.024324   -290.55509   -312126.35 
     110    112.37156    162651.14    72.204944    72.204944    36.024056          120    17140.881    18503.151    -34499.59   -123.85767   -284.73643   -783.81358    72.204944    62.531316    36.024056    381.48068   -312124.39 
     120    112.62378    162648.17    72.204504    72.204504    36.023837          120    17497.768    19311.905    -33957.33   -56.160934    -284.7546   -566.20897    72.204504    62.530935    36.023837    950.78066   -312125.81 
     130    112.76023    162646.51    72.204258    72.204259    36.023715          120    17535.397    19845.011   -33939.097   -81.345717   -221.07769   -87.439359    72.204258    62.530723    36.023715    1147.1039   -312126.14 
     140    112.75636    162646.39     72.20424     72.20424    36.023705          120    17728.394    20081.073   -33951.594   -303.76587   -373.11877    658.49372     72.20424    62.530707    36.023705    1285.9575   -312125.66 
     150     112.8953    162647.84    72.204455    72.204456    36.023813          120    17594.023    19784.273   -34104.426   -505.54316   -69.434691     996.7534    72.204455    62.530893    36.023813    1091.2902   -312125.11 
     160    113.85452    162650.56    72.204857    72.204858    36.024013          120    17343.424     19086.14   -34407.419   -471.20827   -38.675117    1126.3832    72.204857    62.531241    36.024013    674.04821   -312126.39 
     170    114.32449    162653.99    72.205365    72.205366    36.024267          120    17577.709      18367.2   -34806.195    -367.2337    260.11969    1110.4443    72.205365    62.531681    36.024267    379.57122   -312126.62 
     180    113.93869    162657.74     72.20592    72.205921    36.024543          120    17597.612    17988.483   -34952.145   -113.58967   -117.60356    502.58489     72.20592    62.532162    36.024543    211.31657   -312124.08 
     190     114.0541    162661.57    72.206487    72.206487    36.024826          120    17176.662    18167.399   -34785.825    222.35221   -489.64304   -85.454547    72.206487    62.532652    36.024826    186.07866   -312123.32 
     200    114.96311    162665.45    72.207061    72.207061    36.025113          120    17219.503    18373.602   -34662.586    393.29038   -828.50715   -313.36735    72.207061     62.53315    36.025113    310.17276   -312123.33 
     210    115.93908    162669.52    72.207664    72.207664    36.025413          120    17334.285    18529.627   -34334.901     15.09656   -842.18943   -281.92891    72.207664    62.533672    36.025413    509.67031   -312123.24 
     220    116.52008    162674.03    72.208331    72.208331    36.025746          120    17655.382    18522.829   -34048.589   -260.90818   -180.52817    130.44163    72.208331    62.534249    36.025746    709.87414   -312122.76 
     230    116.73212    162679.17    72.209091    72.209091    36.026125          120    17880.421     18417.59   -34254.028   -7.0928381    5.8566405    344.32144    72.209091    62.534908    36.026125    681.32766   -312121.57 
     240    117.28057    162684.91     72.20994    72.209941    36.026549          120    18070.119    18186.332   -34058.014    191.33868    -272.5008    193.90271     72.20994    62.535643    36.026549    732.81215   -312120.13 
     250    117.34836     162691.3    72.210886    72.210887    36.027021          120    17812.805    18793.118   -33816.898     616.8768   -282.94254    533.10741    72.210886    62.536463    36.027021    929.67487   -312118.02 
     260    117.95115    162698.51    72.211952    72.211952    36.027553          120    17645.216    18857.956   -33894.617    807.47584   -196.39855    665.29217    72.211952    62.537385    36.027553    869.51842   -312116.61 
     270    118.78964    162706.44    72.213125    72.213126    36.028138          120    17574.235     18861.52   -34224.567    533.74516   -489.02339    476.68357    72.213125    62.538402    36.028138    737.06238   -312115.97 
     280    120.86442    162714.89    72.214376    72.214377    36.028762          120    17497.608    18812.008    -34682.71   -106.13092   -516.84808    438.58839    72.214376    62.539485    36.028762    542.30163   -312117.55 
     290    120.72004    162723.61    72.215665    72.215666    36.029406          120    17324.325    18666.244   -34925.866   -358.27874   -792.43115    578.45348    72.215665    62.540601    36.029406    354.90114   -312114.91 
     300    121.17278    162732.34    72.216956    72.216957     36.03005          120    17236.812    18074.307   -34594.702   -567.15721   -870.79468    901.23745    72.216956     62.54172     36.03005    238.80554   -312113.21 
     310    121.83519    162740.95     72.21823    72.218231    36.030685          120      16961.8    18288.326   -34426.111   -671.37452   -554.18278    1201.9058     72.21823    62.542823    36.030685    274.67172   -312112.13 
     320    122.57063    162749.48    72.219492    72.219493    36.031315          120     17062.07    18437.884   -34639.429    -399.3321   -545.35142    1087.8838    72.219492    62.543916    36.031315    286.84163   -312111.14 
     330    121.45466    162757.89    72.220737    72.220737    36.031936          120    16879.698    18004.959   -35327.723   -759.92169   -738.79981    771.79793    72.220737    62.544993    36.031936   -147.68856   -312107.16 
     340      122.877    162765.71    72.221893    72.221894    36.032513          120    16418.499    17665.741   -35655.698   -1012.2114   -373.44096    804.51361    72.221893    62.545995    36.032513   -523.81944    -312108.4 
     350    124.40792    162772.53    72.222902    72.222903    36.033016          120    16788.709    17383.272   -35757.378   -905.47226   -225.32722    775.89483    72.222902    62.546869    36.033016   -528.46589   -312109.67 
     360    124.98097    162778.35    72.223763    72.223763    36.033446          120    16955.876    17418.367    -35760.82   -595.87423   -540.12246     766.0023    72.223763    62.547614    36.033446   -462.19234   -312109.37 
     370    125.67926    162783.36    72.224504    72.224505    36.033815          120    16918.349    17987.497   -34892.877   -250.71707   -182.29729    718.46096    72.224504    62.548256    36.033815    4.3230531   -312109.26 
     380    125.38181    162788.08    72.225202    72.225202    36.034163          120    16425.818    18436.145   -34756.106   -57.672025   -591.41146    499.90503    72.225202     62.54886    36.034163    35.285854   -312107.31 
     390    125.40047     162792.6     72.22587    72.225871    36.034497          120    16484.356    18465.407   -35379.862   -226.06606   -795.21043    493.64329     72.22587    62.549439    36.034497   -143.36625   -312106.51 
     400    125.46885    162796.73    72.226481    72.226481    36.034802          120    16285.015    18300.748   -35434.165   -146.82512    -702.5284    982.15806    72.226481    62.549968    36.034802   -282.80063   -312105.99 
     410    124.73356    162800.27    72.227004    72.227004    36.035062          120    15992.243    17628.267   -35686.215    340.62293   -676.55779    730.78068    72.227004    62.550421    36.035062   -688.56838   -312104.27 
     420    126.04035    162802.74    72.227369    72.227369    36.035245          120    15834.091    16828.266   -36332.417    151.70029   -685.00957    646.33219    72.227369    62.550737    36.035245   -1223.3534   -312106.63 
     430    126.16543    162803.62    72.227499      72.2275     36.03531          120    15689.854    16780.086   -36022.553    248.30406   -344.23049    575.02154    72.227499     62.55085     36.03531   -1184.2046   -312106.66 
     440    126.42807    162802.96    72.227401    72.227402    36.035261          120    15024.145    17214.889   -35602.568    448.69098    103.73235    468.65034    72.227401    62.550765    36.035261   -1121.1783   -312107.56 
     450    126.18552    162800.93    72.227102    72.227103    36.035112          120    14975.361     17778.13   -35403.119    206.37623    250.98284     393.8728    72.227102    62.550506    36.035112   -883.20938   -312107.63 
     460    127.32354    162797.94    72.226659    72.226659     36.03489          120    15531.936     18266.84   -34820.153   -107.54964    245.33322     124.3765    72.226659    62.550122     36.03489   -340.45888   -312110.43 
     470    124.62511    162794.61    72.226168    72.226168    36.034645          120    15988.805    18579.659   -34951.018    -262.8663    102.68726    182.49263    72.226168    62.549697    36.034645   -127.51811   -312106.24 
     480    124.35453    162791.25     72.22567    72.225671    36.034397          120    16529.484    18338.997   -35316.138   -377.40553    132.24398    604.96838     72.22567    62.549266    36.034397   -149.21911   -312107.12 
     490    125.88137    162787.88    72.225172    72.225173    36.034149          120    17005.952    18256.057   -35059.102    -222.4686   -136.49261     786.4498    72.225172    62.548835    36.034149    67.635765   -312111.81 
     500    126.19991    162784.72    72.224705    72.224705    36.033916          120    16827.431    18111.929   -34860.278    447.98745   -538.06932    708.90874    72.224705     62.54843    36.033916    26.360868   -312113.81 
     510      124.519    162781.72    72.224261    72.224262    36.033694          120    16390.453    17974.188   -35149.058    544.99088   -392.23478    586.92634    72.224261    62.548046    36.033694   -261.47221   -312112.35 
     520     123.1708     162778.5    72.223784    72.223785    36.033456          120    15906.406    17764.807   -36006.503    376.20864     -189.781    763.76976    72.223784    62.547632    36.033456   -778.42972   -312111.75 
     530    122.69102    162774.49    72.223192    72.223193    36.033161          120     15809.24     17780.75   -35963.884    92.639523   -70.496345     613.2492    72.223192     62.54712    36.033161   -791.29798   -312112.66 
     540    123.36613     162769.7    72.222483    72.222484    36.032807          120    15919.102    17694.326   -35070.109    28.043085     348.8687    530.41922    72.222483    62.546506    36.032807   -485.56033   -312116.26 
     550    122.46751    162764.51    72.221715    72.221715    36.032424          120    16817.067    17497.231   -34781.431   -379.11034   -55.992061    869.39433    72.221715     62.54584    36.032424   -155.71103   -312117.14 
     560    121.17017    162759.37    72.220955    72.220956    36.032045          120    17498.306    18192.143   -34759.375    -217.0054   -162.63949    775.24691    72.220955    62.545183    36.032045    310.35803   -312116.88 
     570    121.31758    162754.81    72.220281    72.220281    36.031708          120     17046.26    18905.039   -34633.911    23.884432   -89.182543    374.07519    72.220281    62.544598    36.031708    439.12945   -312119.22 
     580    120.21259    162751.01    72.219719     72.21972    36.031428          120    16880.589    19417.028   -34644.568    14.263153   -605.66584    490.48612    72.219719    62.544112    36.031428    551.01648   -312119.59 
     590    120.49842    162748.06    72.219282    72.219282     36.03121          120    17169.159    19463.203   -35021.126    96.989165   -802.95352    737.51211    72.219282    62.543733     36.03121    537.07877   -312122.21 
     600     119.1848    162745.96    72.218972    72.218972    36.031055          120    17813.295    19678.686   -34998.585   -68.206947    -852.7686    462.72737    72.218972    62.543465    36.031055    831.13179   -312121.86 
     610    119.64783    162744.94    72.218821    72.218822     36.03098          120    17675.813    19460.004   -34984.544    63.928213   -707.46818    312.16658    72.218821    62.543334     36.03098    717.09108   -312124.69 
     620    120.14133    162744.87     72.21881     72.21881    36.030974          120    17452.836    19070.939   -34989.103    276.99676   -319.50691    481.29699     72.21881    62.543325    36.030974    511.55714    -312127.6 
     630    119.27889    162745.44    72.218895    72.218895    36.031017          120    17197.135    18864.552   -34837.205     399.6893   -254.03586    395.61067    72.218895    62.543398    36.031017    408.16061   -312127.82 
     640    117.60512    162746.54    72.219058    72.219059    36.031098          120    17345.352    18895.739   -34533.923   -6.6184942   -263.14316    269.06946    72.219058     62.54354    36.031098    569.05592   -312126.41 
     650    118.28972    162748.31     72.21932     72.21932    36.031229          120    17245.777    18822.662   -33972.911    75.918778   -638.17017     482.3827     72.21932    62.543766    36.031229    698.50954   -312129.68 
     660    117.31994    162750.87    72.219698    72.219698    36.031417          120    16923.819    19031.881   -33715.513    157.08628   -905.59502    387.79577    72.219698    62.544093    36.031417    746.72925    -312129.6 
     670     116.5967    162754.24    72.220197    72.220197    36.031666          120    17278.915    18931.594   -34263.335    63.633557   -1059.3119   -177.63925    72.220197    62.544526    36.031666     649.0577   -312130.23 
     680    116.87112     162758.3    72.220798    72.220798    36.031966          120     17713.43    19007.134    -34831.15   -84.980782   -719.52432   -129.88847    72.220798    62.545046    36.031966    629.80448   -312132.06 
     690     117.7338    162763.02    72.221496    72.221496    36.032314          120    18103.657    19202.122   -34601.647   -263.76141   -413.04106   -413.68767    72.221496    62.545651    36.032314     901.3772   -312135.15 
     700    116.80042    162768.65    72.222328    72.222328     36.03273          120    17910.222    19303.403   -34303.521    -132.7302   -646.83533   -172.92681    72.222328    62.546371     36.03273    970.03445   -312134.64 
     710    115.84987    162775.24    72.223303    72.223303    36.033216          120    17632.004    19190.653   -34282.917   -84.600016   -1123.9459     475.1076    72.223303    62.547216    36.033216    846.58017   -312134.11 
     720    116.47302     162782.6    72.224392    72.224392    36.033759          120    17132.245    18964.455   -34422.854   -126.96615   -1158.6988    381.79296    72.224392    62.548158    36.033759    557.94896   -312136.27 
     730    116.86107    162790.33    72.225534    72.225534    36.034329          120    16494.994     18357.14   -34370.098   -66.400964   -840.39496    -151.6015    72.225534    62.549148    36.034329     160.6786   -312137.82 
     740    116.38359    162797.97    72.226664    72.226665    36.034893          120    16383.779    18284.477   -34423.117    16.578885   -1304.0279   -401.48758    72.226664    62.550127    36.034893    81.712976   -312137.38 
     750     115.2452     162805.4    72.227762    72.227763    36.035441          120    16421.428    18520.486   -34706.741    60.003904   -1534.1232   -218.59068    72.227762    62.551078    36.035441       78.391   -312136.06 
     760    115.54415     162812.6    72.228828    72.228829    36.035973          120    16366.198    18726.964   -34938.123    238.76007   -1715.4908   -333.38181    72.228828    62.552001    36.035973    51.679796   -312136.64 
     770     116.6945    162819.57    72.229858    72.229859    36.036487          120    16233.665    18532.156   -35043.938    350.43541   -977.95013   -203.16521    72.229858    62.552893    36.036487   -92.705604   -312138.92 
     780    116.17641    162826.11    72.230826    72.230826    36.036969          120    15982.962    18177.202   -35179.009    67.615697    -179.3306     169.8824    72.230826    62.553731    36.036969   -339.61495   -312137.89 
     790    116.70893    162831.95    72.231689     72.23169      36.0374          120    15677.889    18449.496   -35652.902   -90.876149   -451.73631   -12.545155    72.231689    62.554479      36.0374   -508.50577   -312139.03 
     800    116.78381    162836.96    72.232429     72.23243    36.037769          120    16089.623    18650.895   -35727.277    36.783304   -436.52748    35.965304    72.232429    62.555119    36.037769   -328.91981      -312139 
     810    117.21512    162841.35    72.233079    72.233079    36.038093          120    16428.092    18525.196   -35109.878    -20.38811     -365.048    291.79738    72.233079    62.555682    36.038093   -52.196924   -312139.54 
     820    117.92157    162845.49     72.23369    72.233691    36.038399          120    16610.205    18604.175   -34675.369   -17.763605   -547.44397    347.12375     72.23369    62.556212    36.038399    179.67023   -312140.65 
     830    116.99328    162849.63    72.234303    72.234304    36.038704          120    17264.854    18438.061   -35504.998   -136.89562   -346.11116    217.39467    72.234303    62.556742    36.038704    65.972464   -312138.09 
     840    116.66603    162853.69    72.234903    72.234904    36.039004          120    17090.564    18499.793   -35686.119    -17.38161   -512.19575     204.9811    72.234903    62.557262    36.039004   -31.920624   -312137.06 
     850    117.27515    162857.52    72.235469     72.23547    36.039286          120    16660.279    18349.648   -35580.762   -149.84003   -286.91765    447.95552    72.235469    62.557752    36.039286   -190.27821   -312137.34 
     860    117.22899       162861    72.235984    72.235984    36.039543          120    16922.439      18454.9   -35581.327   -33.766964   -108.65771    288.71455    72.235984    62.558198    36.039543   -67.995919   -312136.41 
     870    117.60798    162864.21    72.236458    72.236459     36.03978          120    16666.091    18565.914   -36013.564    58.563466   -209.64233   -254.98165    72.236458    62.558609     36.03978   -260.51947   -312136.05 
     880    118.74975    162866.96    72.236865    72.236866    36.039982          120    16423.978    18480.845   -36228.979    400.48884   -306.06995   -794.72768    72.236865    62.558961    36.039982   -441.38524    -312137.5 
     890    117.95349    162869.11    72.237182    72.237183    36.040141          120    16834.078    18417.958   -35558.762    611.08992   -6.7688657   -767.40656    72.237182    62.559236    36.040141   -102.24203   -312134.87 
     900    118.17932       162871    72.237463    72.237464    36.040281          120    17073.419    18490.918    -35380.73    646.62954   -162.56402   -361.97777    72.237463    62.559479    36.040281    61.202252   -312133.91 
     910    118.34756     162872.9    72.237743    72.237744    36.040421          120    17026.115    18878.089   -35517.584    325.24719   -339.39578   -166.29363    72.237743    62.559721    36.040421    128.87321      -312133 
     920    119.74351    162874.87    72.238035    72.238035    36.040566          120    17216.957    18913.316   -35708.321   -71.717255   -775.81035   -423.48318    72.238035    62.559974    36.040566    140.65059   -312134.62 
     930    119.62803    162876.94    72.238341    72.238342    36.040719          120    17460.341    18935.938   -35917.533   -200.16769   -979.50627   -439.78668    72.238341    62.560239    36.040719     159.5822   -312133.26 
     940    119.80462    162879.11    72.238661    72.238662    36.040878          120    17555.906    18943.483   -36399.681   -287.70495   -868.97579   -251.09717    72.238661    62.560516    36.040878    33.236127   -312132.56 
     950    120.55072    162881.26    72.238979    72.238979    36.041037          120    17251.723    18956.289   -35862.237   -47.988051   -681.52695   -224.26135    72.238979    62.560791    36.041037    115.25828    -312132.7 
     960    120.10314    162883.48    72.239308    72.239308    36.041201          120     17017.09    19252.202   -35235.854    218.78831   -520.11875   -403.62451    72.239308    62.561076    36.041201    344.47922   -312130.13 
     970    121.09164    162886.04    72.239686    72.239687     36.04139          120    16901.723    19329.987   -34824.484    328.06298   -421.77868   -433.17065    72.239686    62.561404     36.04139    469.07549   -312131.05 
     980     120.8868    162889.08    72.240136    72.240136    36.041614          120    16944.981     19109.66   -34805.284      185.976  -0.98243217   -340.91855    72.240136    62.561793    36.041614     416.4522   -312129.16 
     990    121.61917    162892.51    72.240642    72.240643    36.041867          120    16689.123    18940.472   -34971.461    67.631592    60.070266   -164.44743    72.240642    62.562232    36.041867    219.37781   -312129.35 
    1000    122.13369     162896.1    72.241173    72.241174    36.042132          120    16521.095    18859.136   -34789.531   -115.49512   -383.01073   -46.911049    72.241173    62.562692    36.042132    196.89994   -312129.07 
    1010    122.77027     162899.8     72.24172    72.241721    36.042405          120    16607.154    18776.284    -34843.53   -127.26556   -576.99345    199.46506     72.24172    62.563166    36.042405    179.96928   -312129.44 
    1020    121.70633    162903.53    72.242271    72.242272     36.04268          120    16674.074     18191.37   -35369.139    31.996143   -748.23642    125.49122    72.242271    62.563643     36.04268   -167.89849   -312126.21 
    1030    123.62683     162906.9    72.242769     72.24277    36.042928          120    16284.669    18074.506   -35787.305    -161.6841   -844.34945    48.884912    72.242769    62.564074    36.042928   -476.04321   -312129.47 
    1040    124.17621    162909.56    72.243163    72.243164    36.043125          120    15962.009    18009.495   -35484.181    -90.65007   -596.29669    507.09493    72.243163    62.564415    36.043125   -504.22547   -312129.63 
    1050    124.76334     162911.5     72.24345     72.24345    36.043268          120     15813.81    18316.022   -35406.308    139.79626   -452.90416    661.47734     72.24345    62.564663    36.043268   -425.49178   -312130.57 
    1060    124.51449    162912.81    72.243643    72.243643    36.043364          120    15982.729    18295.635   -35858.537    19.853098   -375.31523    755.25435    72.243643    62.564831    36.043364   -526.72431    -312129.7 
    1070    124.41975    162913.39    72.243729     72.24373    36.043407          120    16154.617     18078.82   -35948.054   -90.004054   -471.46581    966.37904    72.243729    62.564906    36.043407   -571.53867   -312129.55 
    1080    124.80461    162913.26    72.243709     72.24371    36.043397          120    16398.566    17788.323   -35581.376   -38.638451   -328.71018    742.15431    72.243709    62.564888    36.043397   -464.82881   -312130.34 
    1090    123.26888    162912.48    72.243595    72.243595     36.04334          120    16147.655    17376.306   -35781.145    246.97213   -118.61474    742.61824    72.243595    62.564789     36.04334   -752.39471   -312127.66 
    1100    122.71432    162910.77    72.243341    72.243342    36.043214          120    15616.206     17262.72   -36228.786    561.39807   -152.98142    672.62196    72.243341     62.56457    36.043214   -1116.6197   -312126.91 
    1110    123.75181    162907.74    72.242895    72.242895    36.042991          120    15915.865    17418.223    -36754.36    628.60846   -42.545324    613.77633    72.242895    62.564183    36.042991   -1140.0908   -312129.39 
    1120    123.43455    162903.42    72.242255    72.242256    36.042672          120     15859.23    17514.349   -36256.132    519.84103    4.8940978    568.68739    72.242255    62.563629    36.042672   -960.85095   -312129.37 
    1130    122.60132    162897.98    72.241451    72.241451     36.04227          120    15529.237    17446.299   -36523.266     517.1062   -53.471395    111.92819    72.241451    62.562932     36.04227   -1182.5767   -312128.54 
    1140     122.8476    162891.27    72.240459    72.240459    36.041775          120    15426.725    17345.317   -36558.922    374.74348   -39.786209   -34.125377    72.240459    62.562073    36.041775   -1262.2931   -312129.99 
    1150    121.56497    162883.21    72.239268    72.239268    36.041181          120    15531.312     17482.32   -36729.074   -2.4735539   -46.835485    100.71405    72.239268    62.561041    36.041181   -1238.4804   -312129.04 
    1160    122.26194     162873.9    72.237891    72.237892    36.040494          120    15644.238    17466.878   -36368.283   -190.37789   -513.19703    547.87176    72.237891     62.55985    36.040494   -1085.7222   -312131.53 
    1170    121.82915    162863.57    72.236364    72.236364    36.039732          120    15692.824    18160.985    -36442.48   -70.374645    -448.0534     682.8248    72.236364    62.558527    36.039732    -862.8903   -312131.43 
    1180    121.88457    162852.59    72.234741    72.234741    36.038923          120    16577.365    18722.006   -35598.112    91.093506   -656.41048     233.0517    72.234741    62.557121    36.038923   -99.580186   -312132.61 
    1190    122.37506    162841.88    72.233158    72.233158    36.038133          120    16847.065    19607.684   -34943.108   -26.807211   -628.90073     36.68278    72.233158     62.55575    36.038133    503.88023   -312134.91 
    1200    121.37068    162832.13    72.231716    72.231716    36.037413          120    16450.308    19725.469   -35185.347    420.04148   -142.70334    292.95328    72.231716    62.554501    36.037413    330.14359   -312134.17 
    1210    121.42977    162823.19    72.230393    72.230393    36.036753          120     16775.09    19214.469   -35132.055    614.33252   -96.919009    532.17229    72.230393    62.553356    36.036753    285.83447   -312135.74 
    1220    120.04515    162814.94    72.229174    72.229175    36.036145          120    17477.666    19217.941   -35590.178    537.37403   -202.62255    368.46971    72.229174      62.5523    36.036145    368.47652   -312134.09 
    1230    119.98212    162807.49    72.228072    72.228072    36.035595          120    18038.617    18930.567   -35335.148    587.81133   -311.02844    67.374866    72.228072    62.551346    36.035595    544.67847   -312135.42 
    1240    120.09728    162801.01    72.227114    72.227114    36.035117          120    18089.869    19103.436    -34945.84    586.40593   -323.10751    211.98041    72.227114    62.550516    36.035117    749.15471   -312137.09 
    1250    120.60378    162795.69    72.226327    72.226327    36.034725          120    17977.871    19416.658   -35221.219    343.82339   -292.32848    409.07125    72.226327    62.549834    36.034725    724.43663      -312139 
    1260    119.85122    162791.52     72.22571     72.22571    36.034417          120    18060.536    19849.773   -35114.734    335.40542   -124.03407    689.23507     72.22571      62.5493    36.034417    931.85864   -312138.66 
    1270    119.67314    162788.67    72.225288    72.225289    36.034206          120    17753.953    20207.938   -34492.897    151.96481    -490.9136    284.24094    72.225288    62.548935    36.034206    1156.3312   -312139.94 
    1280    119.72441    162787.37    72.225097    72.225098    36.034111          120    17909.423    20114.699   -34111.625    242.49913   -459.40902   -279.89153    72.225097    62.548769    36.034111    1304.1656   -312141.63 
    1290    118.16543    162787.78    72.225158    72.225158    36.034141          120    18318.587    20152.238   -34362.545    336.05148   -191.44942    59.002402    72.225158    62.548822    36.034141     1369.427   -312139.69 
    1300     117.3317    162789.91    72.225472    72.225473    36.034298          120    18320.338    20244.212   -34455.851    109.56999    -696.3631    233.48779    72.225472    62.549094    36.034298    1369.5666   -312139.39 
    1310    118.61312    162793.65    72.226024    72.226025    36.034574          120    17898.602    19785.734   -34886.741   -226.91705   -517.24542     270.8771    72.226024    62.549573    36.034574    932.53175   -312142.61 
    1320    118.53988    162798.42     72.22673    72.226731    36.034926          120    17376.577    19551.505   -35498.827   -441.77163   -207.31517    302.20555     72.22673    62.550184    36.034926    476.41833   -312143.31 
    1330    117.68144     162803.7    72.227511    72.227512    36.035316          120    17156.791    20336.244   -35413.503   -450.42441   -212.52866    281.94396    72.227511     62.55086    36.035316    693.17728   -312142.88 
    1340    117.17018    162809.67    72.228395    72.228395    36.035756          120    17726.563    20320.856    -34906.32   -211.96404   -446.33588    16.402461    72.228395    62.551625    36.035756    1047.0332   -312142.64 
    1350    117.31787    162816.76    72.229443    72.229444    36.036279          120    18163.817    19908.898   -33825.156   -160.73292   -171.41297   -126.86486    72.229443    62.552533    36.036279     1415.853   -312143.93 
    1360     117.4273    162825.34    72.230711    72.230712    36.036912          120    17695.595    19936.816   -33787.494    472.85143   -194.39351    36.477534    72.230711    62.553632    36.036912    1281.6389   -312144.97 
    1370    116.84456    162835.24    72.232175    72.232175    36.037642          120    17717.421    19691.106   -34309.066    639.95425   -716.67679    8.2594248    72.232175    62.554899    36.037642    1033.1536   -312144.11 
    1380    117.34265    162846.08    72.233778    72.233778    36.038442          120    17594.768    19238.899   -34676.576    326.84118   -790.04404    263.94504    72.233778    62.556287    36.038442    719.03068   -312145.75 
    1390    116.97611    162857.44    72.235457    72.235458     36.03928          120    17037.667    18991.867   -35112.971    350.75524   -692.12924    386.97922    72.235457    62.557742     36.03928    305.52115   -312145.26 
    1400    116.24603    162868.77    72.237133    72.237134    36.040116          120    16686.356    18648.584   -35785.416    374.49612   -530.99605    261.43248    72.237133    62.559193    36.040116   -150.15885      -312144 
    1410     117.6409    162879.51    72.238721    72.238722    36.040909          120    16498.972    18374.304   -36450.051    378.89406   -786.21382    294.48483    72.238721    62.560568    36.040909     -525.592   -312147.08 
    1420    116.23596    162889.25    72.240161    72.240161    36.041627          120    16135.772    18200.752   -36106.547    316.56657    -877.0062    338.68596    72.240161    62.561815    36.041627   -590.00794    -312144.2 
    1430    116.85486     162897.9    72.241439     72.24144    36.042264          120    16178.256    18300.623   -36125.852    206.78935   -842.16425    685.65307    72.241439    62.562922    36.042264   -548.99072   -312145.13 
    1440    116.21401    162905.58    72.242575    72.242575    36.042831          120    16500.855    18757.264   -36125.597    86.337131   -614.04694    915.92244    72.242575    62.563905    36.042831   -289.15923   -312143.76 
    1450     116.8145    162912.53    72.243602    72.243603    36.043344          120    16319.296     18565.22    -36372.91   -129.90247   -486.71366    546.72178    72.243602    62.564796    36.043344   -496.13137   -312144.17 
    1460    116.68084    162918.66    72.244508    72.244508    36.043796          120    16193.613    18587.172   -36023.214    29.946355   -491.38094   -99.195318    72.244508     62.56558    36.043796   -414.14317   -312143.02 
    1470     117.8267    162923.97    72.245293    72.245293    36.044187          120    16110.961    18002.313   -36321.053     165.7704   -590.46575    3.1617654    72.245293     62.56626    36.044187   -735.92635   -312144.57 
    1480    118.13096    162928.22    72.245922    72.245922    36.044501          120    16481.919    17846.656   -36026.004   -51.806163    -592.2078    374.22436    72.245922    62.566804    36.044501   -565.80981   -312144.41 
    1490    117.98205    162931.61    72.246422    72.246422     36.04475          120    16620.767    18032.695   -35668.533   -303.82327   -644.09398    251.05397    72.246422    62.567237     36.04475   -338.35693   -312143.56 
    1500    118.70312    162934.43    72.246839     72.24684    36.044959          120    16438.235    18488.421   -35556.999   -310.14385   -565.92186    505.72671    72.246839    62.567599    36.044959   -210.11439   -312144.12 
    1510    119.06552    162936.85    72.247197    72.247197    36.045137          120    15703.569    18584.125   -35370.436   -296.39264   -552.42445    157.48679    72.247197    62.567908    36.045137   -360.91414   -312143.94 
    1520    118.36167    162938.73    72.247474    72.247474    36.045275          120    15999.536    18044.823   -35519.559   -169.69415   -403.31468    347.29144    72.247474    62.568148    36.045275   -491.73322    -312141.9 
    1530     119.5025    162939.91    72.247649     72.24765    36.045363          120    15770.094    17999.042   -35474.499    150.18336   -523.61411    798.42492    72.247649      62.5683    36.045363   -568.45417   -312142.95 
    1540    119.02581    162940.33    72.247711    72.247712    36.045394          120    15470.821    18076.838   -35499.031    266.20983   -973.15839    1011.2164    72.247711    62.568354    36.045394   -650.45729   -312141.25 
    1550    120.20609    162939.95    72.247654    72.247655    36.045365          120    15374.812    18073.196    -35010.06    416.94746   -603.23326    1054.3864    72.247654    62.568304    36.045365   -520.68398   -312142.28 
    1560    118.37773    162938.86    72.247494    72.247494    36.045285          120    15055.652    18213.239   -35364.482    558.75494   -270.68107    477.62575    72.247494    62.568166    36.045285   -698.53056   -312137.12 
    1570    119.46205    162936.94     72.24721    72.247211    36.045144          120     15215.43    18232.178   -35530.094    639.22237   -548.48051    642.48662     72.24721     62.56792    36.045144    -694.1621   -312138.38 
    1580    120.07927    162934.24     72.24681    72.246811    36.044944          120    15767.515    18575.139   -35465.271    654.95799   -1301.1266    248.56124     72.24681    62.567574    36.044944   -374.20581   -312138.56 
    1590    121.15166    162931.16    72.246355    72.246355    36.044717          120    16534.745    18923.697   -35595.147    522.32909   -1193.8976    30.666569    72.246355    62.567179    36.044717   -45.568005   -312139.57 
    1600    119.88205    162928.08      72.2459    72.245901     36.04449          120    17039.607    18723.437   -35748.056    779.68435   -1252.8731    86.078272      72.2459    62.566786     36.04449    4.9959009   -312136.25 
    1610    120.97891    162925.13    72.245464    72.245464    36.044273          120    17389.687    18691.895    -35616.42    717.75899    -876.6555    404.92515    72.245464    62.566408    36.044273    155.05413   -312136.95 
    1620    121.94212    162922.43    72.245065    72.245066    36.044074          120    17165.687    18490.166   -35608.113    310.71657   -1023.7577      653.754    72.245065    62.566062    36.044074    15.913056   -312137.67 
    1630    121.88896    162919.91    72.244693    72.244694    36.043888          120    17252.091    18805.896   -34792.378    217.67056   -760.18435    564.64807    72.244693     62.56574    36.043888    421.86939   -312136.59 
    1640    122.08992    162918.02    72.244413    72.244414    36.043748          120    17551.132    19351.619   -34179.307    428.96336   -277.26891    703.38776    72.244413    62.565498    36.043748    907.81467   -312135.82 
    1650    122.45637    162917.29    72.244306    72.244307    36.043695          120    17386.423    19392.725   -34215.312    805.34266   -345.10699    637.26346    72.244306    62.565405    36.043695    854.61187   -312135.45 
    1660    123.30284    162917.61    72.244353    72.244353    36.043718          120    16957.597    18817.755   -34911.376    894.81313   -246.37369     362.6153    72.244353    62.565445    36.043718    287.99196   -312136.63 
    1670    122.32556    162918.28    72.244452    72.244453    36.043768          120    17038.729    18392.772   -36111.761     732.5552    -1004.542    7.6190986    72.244452    62.565531    36.043768   -226.75322   -312134.24 
    1680    121.51617    162918.69    72.244512    72.244513    36.043798          120    16873.273    18422.446   -36250.537     395.5911   -872.20164    30.150247    72.244512    62.565584    36.043798   -318.27279    -312132.6 
    1690    121.61786    162918.67    72.244509     72.24451    36.043796          120    16645.991    18578.122    -36371.44     394.3272   -373.71564    136.78721    72.244509    62.565581    36.043796   -382.44267   -312132.46 
    1700    123.69618    162918.19    72.244438    72.244438    36.043761          120    16610.423    18839.659   -36085.995    395.39571   -215.24263    543.19607    72.244438    62.565519    36.043761   -211.97091   -312136.01 
    1710    122.77045    162917.48    72.244333    72.244334    36.043708          120    16539.047    18896.893   -35146.539     264.8838   -779.21817    560.05969    72.244333    62.565428    36.043708    96.466961   -312134.56 
    1720    123.56815    162916.87    72.244243    72.244244    36.043663          120    16157.542    18802.706   -34853.082    302.04273   -915.63036    345.89411    72.244243    62.565351    36.043663    35.722085   -312135.81 
    1730    123.17216    162916.34    72.244165    72.244165    36.043624          120    15927.316    18686.604   -34730.068    380.02419   -585.99133    209.53404    72.244165    62.565283    36.043624   -38.715918    -312135.3 
    1740    123.03906    162915.75    72.244078    72.244078    36.043581          120    16110.792    18323.466   -35353.435    736.76434   -974.08795   -162.50377    72.244078    62.565207    36.043581   -306.39251   -312134.91 
    1750    122.45949    162914.83    72.243942    72.243942    36.043513          120    16365.662    18597.012    -35775.78    292.71282   -558.19387   -81.865005    72.243942    62.565089    36.043513   -271.03555   -312133.82 
    1760     122.6557    162913.58    72.243756    72.243757    36.043421          120    16681.655    18617.879    -36336.49   -27.423166    -746.7219   -194.79603    72.243756    62.564929    36.043421   -345.65182   -312134.71 
    1770    123.27717    162911.91    72.243511    72.243512    36.043298          120    16859.759    18540.132   -36655.988    -296.2156   -860.91424   -326.34107    72.243511    62.564716    36.043298   -418.69914   -312136.27 
    1780    122.04158    162909.82    72.243202    72.243202    36.043144          120    16367.084    19620.422   -36262.142   -385.63706   -563.76648    194.22719    72.243202    62.564449    36.043144   -91.545333   -312134.71 
    1790    122.70046    162907.72    72.242891    72.242891    36.042989          120    16607.053    19970.135   -35067.656   -394.50428   -175.07159    50.995318    72.242891    62.564179    36.042989    503.17702   -312136.85 
    1800    121.22841    162906.29     72.24268     72.24268    36.042883          120    16656.056    20074.385   -34068.936   -3.7174634   -136.33749    190.53712     72.24268    62.563997    36.042883    887.16862   -312134.42 
    1810    121.55762    162906.02    72.242639     72.24264    36.042863          120    16996.553    20012.125   -33910.444    419.88328    19.114629    440.25673    72.242639    62.563961    36.042863    1032.7444   -312136.08 
    1820      121.455    162907.04    72.242791    72.242791    36.042939          120     17123.86    19556.154   -33940.386    475.20103   -175.34997     218.9668    72.242791    62.564093    36.042939    913.20945   -312136.91 
    1830    121.29541    162909.13      72.2431    72.243101    36.043093          120    16632.764    19064.211   -34867.356    137.62914   -545.63877    247.07286      72.2431     62.56436    36.043093    276.53963   -312137.62 
    1840    121.61986    162911.54    72.243456    72.243456    36.043271          120    16205.674    18965.795   -35595.425    1.3116315    56.720443    336.13226    72.243456    62.564669    36.043271   -141.31875      -312139 
    1850    120.43196    162913.74     72.24378    72.243781    36.043433          120     16611.08    19082.411    -36160.26   -189.66241   -89.314282    347.86404     72.24378     62.56495    36.043433   -155.58952   -312138.03 
    1860    120.30466    162915.63    72.244061    72.244061    36.043572          120    16794.529    18818.778   -36317.937    211.06137   -713.66002    239.63449    72.244061    62.565193    36.043572   -234.87655   -312138.12 
    1870    120.43176    162917.24    72.244298    72.244298    36.043691          120    16852.749    19250.729   -35476.589    342.80967   -741.25209    311.14571    72.244298    62.565398    36.043691    208.96346   -312139.31 
    1880    120.12403       162919    72.244558    72.244558     36.04382          120    16623.207    19200.411   -35008.243    225.63049   -616.73427    385.68541    72.244558    62.565623     36.04382    271.79135   -312139.95 
    1890    120.29945    162921.02    72.244857    72.244857    36.043969          120    16812.695     18740.62   -35008.555    533.83616   -323.41165    393.51596    72.244857    62.565882    36.043969    181.58679    -312141.4 
    1900     120.6254    162923.23    72.245184    72.245184    36.044133          120    16847.049    18540.139   -34571.449    285.41716   -68.215902    258.30621    72.245184    62.566165    36.044133     271.9131   -312143.79 
    1910    119.80454    162925.68    72.245546    72.245546    36.044313          120    16518.769    18657.118   -34961.031   -37.956223   -54.814482    38.125999    72.245546    62.566478    36.044313    71.618949   -312143.36 
    1920    119.29776    162928.19    72.245916    72.245917    36.044498          120    16535.056     19349.04   -35257.688   -3.6281482   -291.87723     197.4427    72.245916    62.566799    36.044498    208.80289   -312143.38 
    1930    118.58669    162930.86    72.246311    72.246312    36.044695          120    16614.756    19651.714   -35550.007    24.501933   -164.39909    454.99672    72.246311    62.567142    36.044695    238.82099   -312143.11 
    1940    118.92214    162933.72    72.246734    72.246735    36.044906          120    16471.371    19186.527   -35572.431    31.286091     107.4024    886.33531    72.246734    62.567508    36.044906    28.489051   -312144.89 
    1950    118.22009     162936.5    72.247145    72.247146    36.045111          120    16781.871    18412.817   -36440.377    134.78398   -586.48261    602.96805    72.247145    62.567864    36.045111   -415.22987    -312144.6 
    1960     117.8105    162938.67    72.247466    72.247467    36.045271          120    16816.458    18175.547    -37108.31    369.62559   -1123.4934    574.33509    72.247466    62.568142    36.045271   -705.43504   -312144.84 
    1970    117.43807    162939.89    72.247646    72.247647    36.045361          120    16153.404    18170.887   -36519.823    109.76006   -881.93798      497.043    72.247646    62.568298    36.045361   -731.84395   -312144.66 
    1980    117.92536    162940.16    72.247687    72.247687    36.045381          120    16090.816    18354.046    -36083.66    265.49855   -702.48725    343.26982    72.247687    62.568333    36.045381     -546.266   -312146.13 
    1990    118.54142    162939.75    72.247626    72.247626    36.045351          120    15948.937    18560.533   -35243.064    326.74473   -650.35074    568.29888    72.247626     62.56828    36.045351   -244.53147   -312147.62 
    2000    117.69548    162939.03     72.24752     72.24752    36.045298          120    15973.861    18880.991   -35093.291    182.23697   -240.73615    401.39703     72.24752    62.568188    36.045298   -79.479481   -312146.77 
    2010    118.45555     162938.2    72.247396    72.247397    36.045237          120    16393.493    18494.624   -35511.963    221.88701   -11.803426    517.74568    72.247396    62.568081    36.045237   -207.94866   -312148.61 
    2020    117.49525    162937.16    72.247243    72.247243     36.04516          120    16750.915     18096.95    -35450.42    266.57647    249.67737    524.12358    72.247243    62.567948     36.04516   -200.85162   -312147.04 
    2030    117.76216    162935.88    72.247053    72.247054    36.045066          120    16817.977    18129.065   -35864.081     350.4395    273.99997    298.94653    72.247053    62.567784    36.045066   -305.67986   -312147.97 
    2040    116.73437    162934.27    72.246816    72.246816    36.044947          120    17156.697    18280.585   -36056.913    337.88036    148.99552    467.49182    72.246816    62.567579    36.044947   -206.54365   -312145.93 
    2050    117.19919    162932.49    72.246553    72.246553    36.044816          120    17475.336    18772.236   -35329.094    336.19767   -193.82883     796.2565    72.246553    62.567351    36.044816     306.1592   -312147.19 
    2060    116.84539    162931.13     72.24635    72.246351    36.044715          120    17558.208    19073.803   -34824.392     474.2017   -623.43654    431.17135     72.24635    62.567175    36.044715    602.53961   -312146.48 
    2070    118.11779     162930.5    72.246258    72.246258    36.044669          120    17161.197    19161.601   -35127.058    412.43268    -832.8723    218.64306    72.246258    62.567095    36.044669    398.57994   -312148.58 
    2080    117.51527    162930.43    72.246248    72.246248    36.044663          120    17146.518    19154.678   -35172.752   -26.420737   -862.77343    382.84716    72.246248    62.567086    36.044663    376.14775   -312147.29 
    2090    117.87221    162930.85     72.24631    72.246311    36.044695          120    17289.732    18987.294    -34871.68      278.364   -982.81541    178.23322     72.24631    62.567141    36.044695    468.44842   -312148.09 
    2100    117.06393    162931.86     72.24646     72.24646    36.044769          120    17274.973    19047.513   -34769.526    268.98656   -854.04438    263.25466     72.24646     62.56727    36.044769    517.65352   -312146.15 
    2110    117.45881    162933.44    72.246692    72.246693    36.044885          120    17043.265    18633.012   -35468.631   -1.8002088   -498.80047     296.8263    72.246692    62.567471    36.044885    69.215419    -312146.2 
    2120     117.8382       162935    72.246924    72.246924    36.045001          120    16237.672    18377.371   -36462.431    269.67325   -558.36331    268.61255    72.246924    62.567672    36.045001   -615.79598    -312146.5 
    2130    118.26603    162935.83    72.247046    72.247047    36.045062          120    16139.973    18354.793   -36340.154    564.45776   -748.34849    563.58131    72.247046    62.567778    36.045062   -615.12931   -312146.46 
    2140    118.68691    162935.82    72.247044    72.247045    36.045061          120    16130.159    18115.704   -36464.684    475.10724   -352.26408    685.42057    72.247044    62.567776    36.045061   -739.60694   -312146.55 
    2150    118.36747    162934.89    72.246907    72.246908    36.044992          120    16017.401    18534.109   -36483.379    358.61246   -338.58494    794.45821    72.246907    62.567657    36.044992   -643.95675   -312145.35 
    2160    119.93781    162933.19    72.246656    72.246657    36.044867          120    16041.114     18860.47   -36129.246    217.55569   -400.65066    730.41036    72.246656     62.56744    36.044867   -409.22045   -312147.73 
    2170    119.28831    162930.97    72.246328    72.246328    36.044703          120    15755.644    18609.718   -36144.616   -174.89764   -302.90543    764.76884    72.246328    62.567156    36.044703   -593.08445   -312145.81 
    2180    119.54062    162928.07    72.245899      72.2459     36.04449          120    15071.955    18695.094   -36083.936   -212.70118   -507.76163    1002.2426    72.245899    62.566784     36.04449   -772.29573   -312145.44 
    2190    119.93688     162924.3    72.245342    72.245342    36.044211          120    15251.251    18690.661   -36225.329   -166.91487   -596.06108    427.17909    72.245342    62.566302    36.044211   -761.13882   -312145.04 
    2200     119.6153     162919.7    72.244662    72.244662    36.043872          120    15842.388    18498.369   -36248.089   -307.65366   -688.58017    602.97539    72.244662    62.565713    36.043872   -635.77758   -312143.96 
    2210    119.44661    162914.43    72.243882    72.243883    36.043483          120    15817.556    18582.318   -36014.907   -422.07632   -782.97691    553.60915    72.243882    62.565038    36.043483   -538.34426   -312143.03 
    2220    120.85777    162908.61    72.243022    72.243023    36.043054          120    15715.574     18472.88   -35856.791   -103.37759   -372.77634   -92.802739    72.243022    62.564293    36.043054   -556.11239   -312144.54 
    2230    120.65516    162902.26    72.242084    72.242085    36.042586          120    15980.826    18499.543   -36077.587   -154.09591   -596.01681    23.567078    72.242084    62.563481    36.042586   -532.40611    -312143.8 
    2240    120.35762    162895.45    72.241077    72.241077    36.042084          120    16147.911    18713.472    -35915.16   -216.29701   -712.01971    410.00301    72.241077    62.562608    36.042084   -351.25916   -312142.24 
    2250    120.02909     162888.4    72.240034    72.240035    36.041564          120    16540.818    18721.986   -35389.817   -49.343028   -520.68115    322.59796    72.240034    62.561706    36.041564   -42.337538   -312140.85 
    2260    120.42956    162881.52    72.239018    72.239019    36.041057          120    17477.123    18700.355   -34727.583   -59.649399   -317.62082    377.32634    72.239018    62.560826    36.041057    483.29817   -312140.21 
[...]
   99200    119.30139    163097.26    72.270897    72.270898    36.056962          120    16759.326     19147.46   -36047.284    28.916948   -835.39371   -375.05642    72.270897    62.588434    36.056962   -46.832707   -312159.79 
   99210    121.40481    163106.12    72.272206    72.272206    36.057614          120    16509.457    19265.602   -36286.562    -561.8866   -669.92623   -533.34835    72.272206    62.589567    36.057614   -170.50109   -312164.09 
   99220    120.05404    163114.75    72.273481    72.273481    36.058251          120    16422.638    18519.965   -36173.894   -852.96714    -322.3738   -535.97129    72.273481    62.590671    36.058251    -410.4305    -312161.2 
   99230    120.68366    163122.91    72.274686    72.274686    36.058852          120    17367.089    18174.592   -36042.305    -714.2683   -503.23872   -723.44367    72.274686    62.591715    36.058852   -166.87483   -312162.61 
   99240    120.73881    163130.85    72.275858    72.275859    36.059437          120     17494.84    18489.909   -35494.718   -816.85403   -832.78357   -661.61889    72.275858     62.59273    36.059437    163.34403    -312162.8 
   99250    119.65166    163138.96    72.277056    72.277057    36.060034          120    16883.062    18956.057    -35272.37   -888.73188   -1340.3218   -438.63607    72.277056    62.593768    36.060034    188.91641   -312160.21 
   99260    120.65747    163147.24    72.278279     72.27828    36.060644          120    16391.018     18677.48   -35674.092   -951.72265   -766.86945    -527.5143    72.278279    62.594826    36.060644   -201.86473   -312162.69 
   99270    120.68893    163155.24    72.279461    72.279461    36.061234          120    16121.927    18213.732   -36295.804   -543.47393     -525.875   -503.96094    72.279461     62.59585    36.061234    -653.3817   -312163.12 
   99280     120.4267    163162.41     72.28052     72.28052    36.061762          120        15777    17874.357   -36469.343   -799.72023   -519.14297   -274.72227     72.28052    62.596767    36.061762   -939.32876   -312162.58 
   99290     118.5747    163168.38    72.281401    72.281402    36.062202          120     15776.26    17486.157   -36314.358   -604.00518   -826.39256    6.0891776    72.281401     62.59753    36.062202   -1017.3135   -312159.23 
   99300    120.01332    163173.03    72.282088    72.282088    36.062545          120    15621.839    17390.347   -35739.003   -733.07248   -1013.2426    142.62592    72.282088    62.598125    36.062545   -908.93879   -312162.47 
   99310    120.56068    163176.52    72.282603    72.282604    36.062802          120    15992.686    17423.302   -35490.266   -387.11276    -1158.358   -358.26918    72.282603    62.598571    36.062802   -691.42613    -312163.6 
   99320    120.15535    163179.04    72.282975    72.282976    36.062988          120    15426.063    17983.915   -36428.483   -395.83432   -1182.2047   -459.62876    72.282975    62.598894    36.062988   -1006.1682   -312162.63 
   99330    120.31068    163180.34    72.283167    72.283167    36.063083          120    15614.794    18512.212   -36380.218    -504.5127   -965.11604   -575.06806    72.283167    62.599059    36.063083   -751.07047   -312163.36 
   99340    119.08764    163180.63     72.28321    72.283211    36.063105          120    15806.846    18494.848   -36123.172   -300.11389   -1127.4161    -473.7137     72.28321    62.599097    36.063105   -607.15945   -312161.09 
   99350    119.69231    163180.11    72.283134    72.283134    36.063066          120    15964.957    18416.091   -36364.722   -389.64271   -630.75967    -626.9881    72.283134    62.599031    36.063066   -661.22504   -312162.24 
   99360    119.32971    163178.76    72.282933    72.282934    36.062967          120    16598.216    18665.624   -36511.554   -390.25637   -198.27094   -459.83321    72.282933    62.598857    36.062967   -415.90452   -312161.62 
   99370    120.18777    163176.86    72.282653    72.282653    36.062826          120    16784.854    18946.434   -36193.561   -517.44193   -729.21806   -397.74073    72.282653    62.598614    36.062826   -154.09113   -312163.47 
   99380    119.66105    163174.75    72.282342    72.282342    36.062671          120     16629.05    18786.348   -35681.914   -293.96702   -847.19018   -324.86643    72.282342    62.598345    36.062671   -88.838777    -312162.4 
   99390    119.78195    163172.49    72.282008    72.282008    36.062505          120    16409.927    18572.168   -36080.101   -535.31018   -888.57374   -305.34072    72.282008    62.598056    36.062505   -366.00192   -312162.69 
   99400    119.37011    163169.77    72.281606    72.281607    36.062304          120    16401.283     18493.85   -36709.141   -217.54129   -1005.9909   -538.52154    72.281606    62.597708    36.062304   -604.66927   -312162.14 
   99410     120.2685    163166.26    72.281089    72.281089    36.062046          120    16018.026    18146.115   -36835.042   -193.86531   -1155.9949   -313.63969    72.281089     62.59726    36.062046   -890.30036   -312163.81 
   99420    119.96278    163161.66    72.280408    72.280409    36.061707          120    15799.272    18167.021   -36472.962   -828.07255   -1139.4978   -523.74627    72.280408    62.596671    36.061707   -835.55613   -312163.45 
   99430    119.70922       163156    72.279572    72.279573     36.06129          120    16345.834    18303.183   -36471.571   -987.16651   -1166.4697   -156.46505    72.279572    62.595947     36.06129   -607.51829   -312163.19 
   99440    119.88454    163149.54    72.278619     72.27862    36.060814          120    16767.045    18415.293   -36576.491   -946.17184    -597.2338   -110.07778    72.278619    62.595121    36.060814   -464.71753   -312163.68 
   99450    119.52616    163142.48    72.277576    72.277577    36.060294          120    16591.276    18464.211   -36056.874   -901.79671    -712.0862   -481.09087    72.277576    62.594218    36.060294   -333.79554    -312162.8 
   99460    120.34904    163134.99     72.27647    72.276471    36.059742          120    16274.656     18622.77   -35552.645   -697.35563   -574.60884   -611.89408     72.27647     62.59326    36.059742    -218.4063   -312164.44 
   99470    119.64605    163127.22    72.275323    72.275323     36.05917          120    16343.959    18908.083   -35750.511   -376.11266   -546.33675   -291.45815    72.275323    62.592266     36.05917   -166.15627   -312163.18 
   99480    118.48991    163119.29    72.274151    72.274151    36.058585          120    16554.025    19178.744   -35227.596   -216.25698   -879.28267   -228.36798    72.274151    62.591251    36.058585    168.39101   -312160.99 
   99490    119.39953    163111.55    72.273009     72.27301    36.058015          120     16985.62    18968.466   -35129.035   -150.52478   -656.27135    -484.4113    72.273009    62.590262    36.058015    275.01692   -312162.84 
   99500    120.67243    163104.17    72.271918    72.271919    36.057471          120    17290.497    18590.194    -35307.92   -332.46362   -600.27148   -343.31022    72.271918    62.589318    36.057471    190.92378   -312165.43 
   99510    119.35055    163097.02    72.270862    72.270863    36.056944          120    17094.837    18741.133   -35896.045   -401.77308   -939.26816   -463.77546    72.270862    62.588404    36.056944    -20.02523   -312163.16 
   99520    120.21049    163089.86    72.269805    72.269806    36.056417          120    17239.476    18335.357   -36161.086   -56.722277   -798.48501   -354.05811    72.269805    62.587488    36.056417   -195.41789   -312164.35 
   99530    118.64977    163082.49    72.268715    72.268716    36.055873          120    16949.551    18610.891    -36128.84   -543.20122    -887.3632   -233.77522    72.268715    62.586544    36.055873   -189.46598    -312161.7 
   99540    119.62962    163074.88    72.267593    72.267593    36.055313          120    16776.803    18985.329   -35624.647   -842.80912   -1080.0983   -135.84616    72.267593    62.585572    36.055313    45.828239    -312163.5 
   99550    120.28349     163067.4    72.266488    72.266488    36.054761          120    17491.192    19520.481    -34907.77    -930.0154   -1113.6908   -346.08657    72.266488    62.584615    36.054761    701.30103   -312164.44 
   99560    119.53331    163060.77    72.265507    72.265508    36.054272          120    17418.565    19611.383   -34651.783   -1061.4361   -789.67918   -781.50693    72.265507    62.583766    36.054272    792.72201   -312162.81 
   99570     119.0575    163055.13    72.264675    72.264675    36.053857          120    17162.887    19261.375   -34602.009   -552.94368   -635.78515    -853.7951    72.264675    62.583045    36.053857    607.41748   -312161.82 
   99580    120.97301    163050.27    72.263956    72.263957    36.053499          120    17081.632    18873.911   -34977.041    -676.4427   -704.58253   -710.57179    72.263956    62.582423    36.053499    326.16734   -312165.38 
   99590    119.12775    163045.87    72.263307    72.263307    36.053174          120    17131.445    19289.747    -35267.64   -892.15312   -286.13783    -683.9324    72.263307     62.58186    36.053174    384.51725   -312161.72 
   99600     120.0328    163041.98    72.262732    72.262733    36.052888          120    17566.975    19713.768   -35528.643   -567.27203   -320.87813   -694.81208    72.262732    62.581363    36.052888    584.03343   -312163.51 
   99610    119.47068    163038.85     72.26227     72.26227    36.052657          120     17467.46    19430.581   -35077.956   -569.63272   -885.63843    -827.9064     72.26227    62.580962    36.052657    606.69495   -312162.32 
   99620    119.96198    163036.49    72.261921    72.261921    36.052483          120    17613.788    19269.458   -35535.406   -405.87085   -778.93304    -708.7166    72.261921     62.58066    36.052483    449.28007   -312162.84 
   99630     120.7396    163034.71    72.261658    72.261658    36.052352          120    17448.797    19697.487   -36167.132   -491.62514   -1342.8102   -526.38125    72.261658    62.580432    36.052352    326.38422   -312164.09 
   99640    120.76684    163033.41    72.261465    72.261466    36.052256          120    17542.336    19660.393   -36001.895   -312.46369   -1127.8074    -384.2046    72.261465    62.580265    36.052256    400.27798   -312164.11 
   99650    119.34327    163032.61    72.261348    72.261349    36.052197          120    17292.265    19492.168   -35465.054   -234.00147   -946.68395    13.259865    72.261348    62.580164    36.052197    439.79348    -312160.7 
   99660     120.3326    163032.42    72.261319     72.26132    36.052183          120    17381.763    19334.473   -34863.258   -776.65595   -721.31456   -127.20213    72.261319    62.580139    36.052183    617.65925   -312162.22 
   99670    121.44223       163033    72.261405    72.261406    36.052226          120    17405.201    19513.026   -34865.509   -551.70616   -582.06705    -308.9485    72.261405    62.580213    36.052226    684.23954   -312164.23 
   99680    120.07764    163034.49    72.261626    72.261626    36.052336          120    18096.488     19399.88   -34850.926   -515.53121    -797.7699   -298.78375    72.261626    62.580404    36.052336     881.8143    -312161.1 
   99690    120.68019    163037.07    72.262006    72.262007    36.052526          120    17884.545    19298.631   -35077.972   -486.28038   -471.99518   -511.80258    72.262006    62.580734    36.052526    701.73463   -312162.35 
   99700    120.45815    163040.55    72.262521    72.262522    36.052783          120     17261.07    19380.979   -35267.226   -534.63367   -957.41864   -635.30376    72.262521     62.58118    36.052783    458.27418   -312161.67 
   99710    120.01225    163044.61     72.26312    72.263121    36.053081          120    17273.428    19051.784   -35857.409   -542.71834   -1140.1361   -598.52221     72.26312    62.581698    36.053081    155.93447   -312161.07 
   99720    120.11362    163048.93    72.263758    72.263759      36.0534          120    17077.588    19262.211   -35567.557   -383.82414   -570.35742   -876.79424    72.263758    62.582251      36.0534    257.41406   -312161.16 
   99730    120.76757    163053.56    72.264442    72.264443    36.053741          120    16951.969    19074.936   -34921.712   -431.30411   -415.78893   -827.43782    72.264442    62.582843    36.053741    368.39738    -312162.2 
   99740    120.26693     163058.7    72.265201    72.265202     36.05412          120     17344.56    19309.574   -34601.176   -442.84611   -539.86293   -815.20838    72.265201    62.583501     36.05412    684.31936   -312160.89 
   99750    121.31511    163064.71    72.266089     72.26609    36.054563          120    17572.881    19132.015   -34216.622   -153.25996   -312.26377   -709.26413    72.266089     62.58427    36.054563    829.42472   -312162.52 
   99760    121.80576    163071.75     72.26713     72.26713    36.055082          120    17460.763    19527.159   -34691.808   -261.10822   -873.02504   -589.57228     72.26713    62.585171    36.055082    765.37152   -312163.48 
   99770     120.5345    163079.77    72.268314    72.268314    36.055673          120    17241.233    19724.036   -34930.644   -578.80284   -580.38409   -807.78403    72.268314    62.586196    36.055673    678.20812   -312160.71 
   99780    121.63903    163088.65    72.269625    72.269626    36.056327          120     16800.89    19548.762   -34817.586   -648.50669   -319.51085   -685.67445    72.269625    62.587332    36.056327    510.68844   -312162.38 
   99790    120.63312    163098.16     72.27103    72.271031    36.057028          120    16823.209    19788.087    -36115.69   -946.71646   -575.15145   -394.37778     72.27103    62.588549    36.057028    165.20217   -312160.52 
   99800    120.52524    163107.87    72.272464    72.272465    36.057743          120    16799.251    19374.239   -36632.522   -386.34763   -433.45524   -114.38805    72.272464    62.589791    36.057743   -153.01061   -312160.58 
   99810    120.94207    163117.46    72.273881    72.273881     36.05845          120    17002.145    19407.159   -36149.754    215.03649   -281.28238    -95.81348    72.273881    62.591017     36.05845    86.516825   -312161.58 
   99820    119.41799    163127.08    72.275303    72.275303    36.059159          120    16427.779    19088.033   -35877.193   -50.153155   -268.17644   -488.16252    72.275303    62.592249    36.059159   -120.46042   -312158.91 
   99830    120.12341    163136.51    72.276695    72.276696    36.059854          120    16104.781    18370.137   -36094.698     42.63696   -277.33749    34.059579    72.276695    62.593455    36.059854   -539.92635   -312160.14 
   99840    120.02349    163145.26    72.277987    72.277988    36.060499          120     15832.77    17991.919    -35864.16   -39.051227   -189.71854   -394.12305    72.277987    62.594574    36.060499   -679.82351   -312159.99 
   99850    120.49575     163153.1    72.279145    72.279145    36.061076          120    15631.506    17912.043   -36117.703   -499.05721   -730.15766   -539.14537    72.279145    62.595576    36.061076   -858.05151   -312160.95 
   99860    121.39275    163159.87    72.280144    72.280144    36.061575          120    15906.847    17958.699   -35918.331   -517.80534   -715.69153   -428.14307    72.280144    62.596441    36.061575   -684.26125   -312162.63 
   99870    119.93266    163165.73     72.28101     72.28101    36.062007          120    16264.782    18156.641   -36043.431    -379.4073    -825.8859   -462.57809     72.28101    62.597191    36.062007   -540.66951   -312159.86 
   99880    121.02991    163170.88     72.28177    72.281771    36.062386          120    16488.966     18453.34   -35995.457   -275.86843    -547.9466   -644.12808     72.28177     62.59785    36.062386   -351.05035   -312162.83 
   99890    121.42159    163175.52    72.282456    72.282456    36.062728          120    16107.909     18339.27   -35851.984   -186.13503   -420.11269   -315.47165    72.282456    62.598443    36.062728   -468.26854   -312163.64 
   99900    120.17898    163179.53    72.283048    72.283049    36.063024          120    16095.061    18156.224   -36388.422   -43.552284    -897.9296   -321.94128    72.283048    62.598956    36.063024   -712.37875   -312161.91 
   99910    118.91894    163182.65    72.283508    72.283508    36.063253          120    15995.995    18216.797   -36342.815   -180.45721   -1342.2433   -641.82069    72.283508    62.599354    36.063253   -710.00745   -312160.23 
   99920    120.00866     163184.8    72.283826    72.283826    36.063412          120    16115.931    17716.584   -36266.423   -117.60054    -991.5854   -329.30704    72.283826     62.59963    36.063412   -811.30274   -312162.79 
   99930    119.62947    163185.92    72.283991    72.283992    36.063494          120    16125.443    17716.745    -36000.18   -178.99517   -547.22513   -533.31805    72.283991    62.599773    36.063494   -719.33081   -312162.52 
   99940    119.48169     163186.1    72.284017    72.284017    36.063507          120    15979.228    18014.859   -36170.063    -319.9368   -837.38847   -570.38445    72.284017    62.599796    36.063507   -725.32535    -312162.2 
   99950    119.39687    163185.34    72.283906    72.283907    36.063452          120    16143.351    18264.319   -36432.664   -233.69501   -1137.3318   -381.35004    72.283906      62.5997    36.063452   -674.99826   -312162.19 
   99960    119.04576     163183.7    72.283663    72.283664    36.063331          120    16093.581    18554.946    -36655.02   -595.39051    -1376.285   -273.50124    72.283663    62.599489    36.063331   -668.83102   -312162.45 
   99970    118.94542    163181.25    72.283301    72.283301     36.06315          120    16206.279    19103.451   -36114.347   -679.37079   -1161.6656   -964.72073    72.283301    62.599175     36.06315   -268.20549   -312162.43 
   99980    119.10413    163178.37    72.282876    72.282877    36.062938          120    16705.191    18905.357   -36231.584   -742.73633   -1011.6508   -1106.1274    72.282876    62.598808    36.062938   -207.01181   -312162.73 
   99990    120.14335     163175.2    72.282408    72.282409    36.062705          120    16440.202    18522.107   -36096.338    -665.3734   -290.07141   -1100.2922    72.282408    62.598403    36.062705   -378.00934   -312164.76 
  100000    119.73686    163171.53    72.281866    72.281866    36.062434          120    16341.657    17847.685   -36210.958   -853.55341   -306.07381   -792.91167    72.281866    62.597933    36.062434    -673.8722   -312163.94 
Loop time of 28428 on 1 procs for 100000 steps with 14848 atoms

Performance: 0.304 ns/day, 78.967 hours/ns, 3.518 timesteps/s
100.0% CPU use with 1 MPI tasks x no OpenMP threads

MPI task timing breakdown:
Section |  min time  |  avg time  |  max time  |%varavg| %total
---------------------------------------------------------------
Pair    | 24483      | 24483      | 24483      |   0.0 | 86.12
Bond    | 0.019279   | 0.019279   | 0.019279   |   0.0 |  0.00
Kspace  | 1119.5     | 1119.5     | 1119.5     |   0.0 |  3.94
Neigh   | 2144       | 2144       | 2144       |   0.0 |  7.54
Comm    | 38.306     | 38.306     | 38.306     |   0.0 |  0.13
Output  | 1.1335     | 1.1335     | 1.1335     |   0.0 |  0.00
Modify  | 631.06     | 631.06     | 631.06     |   0.0 |  2.22
Other   |            | 10.8       |            |       |  0.04

Nlocal:    14848 ave 14848 max 14848 min
Histogram: 1 0 0 0 0 0 0 0 0 0
Nghost:    46843 ave 46843 max 46843 min
Histogram: 1 0 0 0 0 0 0 0 0 0
Neighs:    1.00864e+07 ave 1.00864e+07 max 1.00864e+07 min
Histogram: 1 0 0 0 0 0 0 0 0 0

Total # of neighbors = 10086370
Ave neighs/atom = 679.308
Ave special neighs/atom = 0
Neighbor list builds = 7638
Dangerous builds = 0
 
All done!
Total wall time: 7:58:44
