LAMMPS (16 Mar 2018)
Reading data file ...
  triclinic box = (0 0 0) to (9.208 7.97436 18.376) with tilt (-4.604 0 0)
  1 by 1 by 1 MPI processor grid
  reading atoms ...
  116 atoms
Finding 1-2 1-3 1-4 neighbors ...
  special bond factors lj:   0          0          0         
  special bond factors coul: 0          0          0         
  0 = max # of 1-2 neighbors
  0 = max # of 1-3 neighbors
  0 = max # of 1-4 neighbors
  1 = max # of special neighbors
Replicating atoms ...
  triclinic box = (0 0 0) to (73.664 63.7949 36.752) with tilt (-36.832 0 0)
  1 by 1 by 1 MPI processor grid
  14848 atoms
Finding 1-2 1-3 1-4 neighbors ...
  special bond factors lj:   0          0          0         
  special bond factors coul: 0          0          0         
  0 = max # of 1-2 neighbors
  0 = max # of 1-3 neighbors
  0 = max # of 1-4 neighbors
  1 = max # of special neighbors
  Time spent = 0.00275397 secs
PPPM initialization ...
WARNING: System is not charge neutral, net charge = -0.2048 (../kspace.cpp:302)
  using 12-bit tables for long-range coulomb (../kspace.cpp:321)
  G vector (1/distance) = 0.201681
  grid = 36 50 24
  stencil order = 5
  estimated absolute RMS force accuracy = 0.00105653
  estimated relative force accuracy = 7.33721e-05
  using double precision FFTs
  3d grid and FFT values/proc = 65395 43200
Neighbor list info ...
  update every 1 steps, delay 0 steps, check yes
  max neighbors/atom: 2000, page size: 100000
  master list distance cutoff = 15.3
  ghost atom cutoff = 15.3
  binsize = 7.65, bins = 15 9 5
  3 neighbor lists, perpetual/occasional/extra = 3 0 0
  (1) pair morse, perpetual
      attributes: half, newton on
      pair build: half/bin/newton/tri
      stencil: half/bin/3d/newton/tri
      bin: standard
  (2) pair buck, perpetual, copy from (1)
      attributes: half, newton on
      pair build: copy
      stencil: none
      bin: none
  (3) pair lj/cut/coul/long, perpetual, copy from (1)
      attributes: half, newton on
      pair build: copy
      stencil: none
      bin: none
Setting up Verlet run ...
  Unit style    : metal
  Current step  : 0
  Time step     : 0.001
Per MPI rank memory allocation (min/avg/max) = 145.7 | 145.7 | 145.7 Mbytes
Step Temp Volume Cella Cellb Cellc CellGamma Pxx Pyy Pzz Pxy Pxz Pyz Lx Ly Lz Press PotEng 
       0           10    172711.88       73.664    73.664001       36.752          120   -211410.42   -211404.59    -282394.7    2.0870082  -0.25857135   0.33848722       73.664    63.794896       36.752    -235069.9   -309191.56 
      10    218.77252    170808.25    73.392358    73.392359    36.616474          120   -200215.29      -200242   -248318.88    26.685254    4.8279669   -34.728216    73.392358    63.559647    36.616474   -216258.72   -309907.39 
      20    415.80198    167744.06    72.950836    72.950837    36.396193          120   -178393.07   -178296.62   -160275.58    6.9341426   -33.888341   -75.633737    72.950836    63.177278    36.396193   -172321.76   -310736.96 
      30     275.5584    165291.18    72.593508    72.593509    36.217917          120   -151754.62    -151589.4   -58403.231   -58.182875   -134.84143   -95.994614    72.593508    62.867823    36.217917   -120582.41   -310846.88 
      40    43.912573    163342.46    72.307096    72.307097    36.075022          120   -124683.78   -124540.93    21062.127   -130.81763   -290.87438   -114.72576    72.307096    62.619783    36.075022   -76054.195   -310551.61 
      50    112.63327    161990.56    72.107061    72.107062    35.975222          120   -104927.93    -104804.9     39783.59   -175.30826   -441.62717   -177.91264    72.107061    62.446548    35.975222   -56649.749   -310748.42 
      60    331.78923    160926.88     71.94889     71.94889    35.896307          120   -85424.698   -85288.425   -7918.5619   -267.70698   -788.52624   -232.98729     71.94889    62.309567    35.896307   -59543.895   -311268.45 
      70    337.82552     159895.2    71.794808    71.794809    35.819434          120   -61187.651   -60991.419   -71026.845   -285.69989    -1282.228   -216.10697    71.794808    62.176129    35.819434   -64401.971   -311445.72 
      80    182.09692    158837.48    71.636147    71.636148    35.740276          120     -34208.5   -34050.781   -96725.137   -211.97803   -1779.8484    -137.2529    71.636147    62.038724    35.740276   -54994.806   -311274.24 
      90    127.10671    157878.55    71.491697    71.491697    35.668207          120   -7529.9924   -7374.9919    -77045.28   -146.35435   -2233.0342   -4.0623252    71.491697    61.913626    35.668207   -30650.088    -311231.9 
     100    287.88107    157199.89    71.389112    71.389112    35.617026          120    26087.344    26214.188   -25154.789   -332.20465   -2659.6119    106.82877    71.389112    61.824785    35.617026    9048.9143   -311610.31 
     110    307.09926    157006.82    71.359873    71.359873    35.602439          120    52546.451    52965.275    41221.145   -653.90408   -2825.7498    56.937776    71.359873    61.799463    35.602439    48910.957   -311760.14 
     120    186.36851    157423.12    71.422888    71.422888    35.633878          120    52463.294    53738.788    80196.501   -685.58597   -3453.7478    7.0127422    71.422888    61.854036    35.633878    62132.861   -311632.83 
     130    139.23392    158286.91    71.553283    71.553283    35.698934          120    33802.655    35738.283    67394.166   -601.36011    -4229.536   -44.315359    71.553283    61.966961    35.698934    45645.035   -311616.77 
     140    189.95815    159187.97      71.6888    71.688801    35.766545          120    17594.025    19824.843    23345.318   -557.17252   -4653.7985   -63.487737      71.6888    62.084323    35.766545    20254.728   -311781.79 
     150    208.05237    159823.64    71.784096    71.784096    35.814089          120    7933.6714    10268.803   -26124.747   -400.92109   -5056.6313   -192.32391    71.784096    62.166851    35.814089   -2640.7575    -311891.6 
     160    163.82269    160109.75    71.826905    71.826906    35.835448          120     4994.636    7439.5371   -55097.495   -293.36049   -5119.8368   -298.67129    71.826905    62.203925    35.835448   -14221.107   -311871.23 
     170    123.41511    160113.73    71.827501    71.827501    35.835745          120    11426.752    14126.022   -58729.642   -535.65084   -4756.9384   -348.43757    71.827501    62.204441    35.835745   -11058.956   -311839.15 
     180    130.67285    160001.84    71.810764    71.810765    35.827395          120    23365.126    26134.715    -45309.94    -779.4904   -4148.8236   -322.27924    71.810764    62.189947    35.827395    1396.6337   -311892.16 
     190    148.36747    159957.58    71.804143    71.804144    35.824091          120    30530.562    33274.963   -23046.966   -797.14769   -3632.6799   -420.57722    71.804143    62.184213    35.824091    13586.186   -311973.11 
     200    134.27576     160091.1    71.824117    71.824117    35.834057          120    29107.265    31775.167   -1536.1738   -844.48062   -3320.5959   -873.98564    71.824117     62.20151    35.834057    19782.086   -311996.38 
     210    101.88762    160409.52    71.871704    71.871705    35.857799          120    23654.384    26043.817    6648.2415   -833.18378   -3199.2499   -1151.1709    71.871704    62.242722    35.857799    18782.147    -311975.8 
     220    93.805554    160835.09    71.935207    71.935207    35.889481          120    18252.036    20261.981   -1579.4936   -759.85941   -3394.2271   -1150.7666    71.935207    62.297717    35.889481    12311.508   -311991.57 
     230    101.61536    161250.59    71.997099      71.9971     35.92036          120    13376.368     15247.48   -18271.681    -658.5136   -3329.1182   -1139.5066    71.997099    62.351318     35.92036    3450.7221   -312035.99 
     240    98.909748    161552.96    72.042073    72.042074    35.942798          120    9285.6797    11256.952   -34744.305   -580.60713   -3270.2873   -971.68408    72.042073    62.390266    35.942798   -4733.8913   -312060.56 
     250    83.410044    161690.08     72.06245    72.062451    35.952964          120    8888.1619    10814.963   -44858.072   -474.93581   -3393.3906   -1030.2345     72.06245    62.407913    35.952964   -8384.9824   -312056.65 
     260    73.759192    161679.32    72.060851    72.060852    35.952167          120    11978.678    13500.113   -47222.684   -392.93612   -3396.1319   -1205.9048    72.060851    62.406528    35.952167   -7247.9647   -312060.33 
     270     74.27921    161584.59    72.046774    72.046774    35.945143          120    15053.014    16231.528   -41432.599   -128.07208   -3199.9525   -1240.7832    72.046774    62.394337    35.945143   -3382.6861   -312082.32 
     280    75.013615    161480.74    72.031336    72.031336    35.937441          120    17283.364    18392.588   -30463.937    164.07656    -3092.426   -1115.7359    72.031336    62.380967    35.937441    1737.3383   -312104.93 
     290    67.976376    161432.59    72.024176    72.024176    35.933869          120    18951.404    20213.941   -21025.845    244.94413   -3040.3446    -1106.149    72.024176    62.374767    35.933869    6046.4996    -312111.7 
     300    59.820468    161474.38     72.03039    72.030391    35.936969          120    18974.657    20384.381   -17620.679    128.53755   -3043.6669   -1270.3366     72.03039    62.380148    35.936969    7246.1199   -312113.06 
     310    57.326272    161592.94    72.048016    72.048016    35.945763          120     16377.59    17935.255    -20701.22    33.575661   -3189.7442   -1364.8218    72.048016    62.395412    35.945763    4537.2085   -312123.25 
     320    57.115833    161732.71    72.068782    72.068783    35.956124          120    12562.894    14422.652   -27915.249   -109.47962   -3380.2972   -1464.7034    72.068782    62.413397    35.956124   -309.90102    -312136.9 
     330    54.435608    161828.61    72.083024    72.083024    35.963229          120     10588.29    12473.913   -35806.032   -289.08782   -3557.1858   -1395.8284    72.083024     62.42573    35.963229   -4247.9431   -312145.42 
     340    49.731022    161844.43    72.085372    72.085372      35.9644          120    11121.538    13082.218    -40750.86   -390.79338   -3629.3393   -1237.6005    72.085372    62.427764      35.9644   -5515.7013   -312149.22 
     350    46.272833    161786.18    72.076723    72.076724    35.960085          120    12764.287    14927.286   -40132.004   -594.25196   -3589.8104   -1092.3373    72.076723    62.420274    35.960085   -4146.8104    -312154.7 
     360    45.009173    161691.36    72.062639     72.06264    35.953059          120    14797.475    17245.827   -34676.458   -690.77846   -3596.5527   -1108.6818    72.062639    62.408077    35.953059   -877.71895   -312163.03 
     370    43.884629    161611.01    72.050701    72.050701    35.947102          120    17040.949    19403.546   -28069.963   -735.06091   -3629.5047    -1214.906    72.050701    62.397738    35.947102    2791.5107   -312171.54 
     380    40.898794     161587.3    72.047178    72.047178    35.945345          120    18109.965    20272.815   -23568.477   -674.19522   -3554.8251    -1301.509    72.047178    62.394687    35.945345    4938.1009   -312175.86 
     390    38.017101    161632.46    72.053888    72.053888    35.948693          120    16966.608    19174.935   -22684.109   -466.22478   -3489.0958   -1291.1018    72.053888    62.400498    35.948693    4485.8113   -312179.13 
     400    36.496946    161724.24    72.067525    72.067525    35.955496          120    15112.016    17276.578   -25362.661   -376.48051   -3388.6178   -1318.8543    72.067525    62.412308    35.955496    2341.9777    -312184.3 
     410    35.791254     161824.4    72.082399      72.0824    35.962917          120    13795.795    15999.959   -30180.716    -453.1905   -3210.9001   -1429.5795    72.082399    62.425189    35.962917    -128.3209   -312190.04 
     420    33.968717    161899.04    72.093479    72.093479    35.968445          120    13067.282    15284.618   -34641.887   -542.80072   -3182.4865   -1548.5128    72.093479    62.434785    35.968445   -2096.6622   -312193.43 
     430    31.698594    161928.84    72.097903    72.097904    35.970652          120    12679.395     15093.98   -36563.235   -649.74373   -3234.9118   -1634.9515    72.097903    62.438616    35.970652   -2929.9532   -312195.62 
     440    30.174303    161913.91    72.095687    72.095688    35.969547          120    13109.508    15742.533   -35606.581   -623.24036   -3254.3442    -1709.353    72.095687    62.436697    35.969547   -2251.5134   -312199.01 
     450    29.426257    161873.43    72.089677    72.089678    35.966548          120    14314.102    17002.521   -32850.001   -513.98646   -3383.7556      -1763.1    72.089677    62.431493    35.966548   -511.12617   -312203.68 
     460    28.568094    161835.53    72.084051    72.084051    35.963741          120    15312.199    18007.582   -29514.701   -440.87076   -3329.0194   -1732.5781    72.084051     62.42662    35.963741    1268.3597   -312207.71 
     470    27.286612    161822.64    72.082137    72.082138    35.962786          120    15691.371    18151.775   -27093.792   -394.77448   -3179.1241   -1757.8254    72.082137    62.424962    35.962786    2249.7845   -312210.71 
     480    26.130934    161841.93    72.085002    72.085002    35.964216          120     15381.51    17692.593   -26877.974   -340.44069   -3110.3303    -1761.449    72.085002    62.427443    35.964216    2065.3761   -312213.25 
     490    25.452903    161884.11    72.091264    72.091264     35.96734          120    14695.983    16991.359   -28720.559   -329.87227   -3120.1423   -1826.8715    72.091264    62.432866     35.96734    988.92762   -312216.32 
     500    24.994763    161930.31     72.09812    72.098121    35.970761          120    13825.821    16263.221   -31214.611   -307.02197   -3127.0479   -1854.2292     72.09812    62.438804    35.970761   -375.18996   -312219.83 
     510    24.251515    161962.01    72.102825    72.102826    35.973108          120    13190.716    15970.998   -33038.314   -252.70207     -3164.01   -1861.5894    72.102825    62.442879    35.973108   -1292.1998   -312222.72 
     520    23.294231    161970.38    72.104067    72.104068    35.973728          120    13321.201    16336.596   -33658.634   -249.99267   -3193.8313   -1957.3959    72.104067    62.443955    35.973728   -1333.6123   -312225.13 
     530    22.261125    161959.65    72.102474    72.102475    35.972933          120    13937.465    17045.401   -32945.784   -317.77406   -3203.3452   -1989.0886    72.102474    62.442575    35.972933   -654.30602   -312226.98 
     540    21.567328    161942.41    72.099917    72.099918    35.971657          120    14473.423    17563.607   -31409.989   -388.55253   -3166.9204   -1964.0447    72.099917     62.44036    35.971657    209.01369   -312229.22 
     550    20.962238    161931.43    72.098286    72.098287    35.970844          120    14695.737    17862.107   -29825.986   -390.19542   -3090.1765   -1956.2832    72.098286    62.438948    35.970844    910.61961   -312231.95 
     560    20.281937    161934.91    72.098804    72.098804    35.971102          120     14698.66    18044.115   -28915.347   -370.70294   -3005.4888   -1985.7813    72.098804    62.439396    35.971102    1275.8093   -312233.99 
     570    19.395281    161954.72    72.101743    72.101743    35.972568          120    14346.258    17900.678   -29066.044   -293.83776   -2978.6806    -2027.182    72.101743    62.441942    35.972568    1060.2973   -312235.53 
     580    18.748998    161984.74    72.106197    72.106198     35.97479          120    13743.868    17410.881   -30156.893   -208.57077   -3058.8016   -2066.0627    72.106197    62.445799     35.97479     332.6184   -312237.04 
     590     18.20744     162013.4    72.110451    72.110451    35.976912          120    13195.344    16919.374    -31617.62   -162.52553   -3110.7837   -1979.0708    72.110451    62.449483    35.976912   -500.96733   -312238.57 
     600    17.591291       162030    72.112913    72.112914    35.978141          120    13068.011    16697.225   -32775.274   -150.55472    -3198.275   -1808.9431    72.112913    62.451615    35.978141    -1003.346   -312240.02 
     610    16.983382    162030.11    72.112929    72.112929    35.978149          120    13245.037    16726.159   -33022.119   -203.19365   -3095.5914   -1729.6464    72.112929    62.451629    35.978149   -1016.9741   -312241.23 
     620    16.566713    162016.48    72.110907    72.110907     35.97714          120    13526.031    16907.758   -32386.504   -263.34352   -2954.9211   -1624.8815    72.110907    62.449878     35.97714    -650.9053   -312243.03 
     630    16.283574    161996.65    72.107965    72.107965    35.975672          120    13976.591    17227.868   -31254.183   -196.70498   -2896.2046    -1639.176    72.107965     62.44733    35.975672   -16.575083   -312244.92 
     640    15.882869    161980.21    72.105526    72.105527    35.974456          120    14440.642    17545.468   -30210.694   -152.27955   -2808.4604    -1715.812    72.105526    62.445218    35.974456    591.80514    -312246.4 
     650    15.452256    161974.64    72.104699    72.104699    35.974043          120    14632.694    17655.394   -29652.836   -105.25901   -2747.8996   -1737.4365    72.104699    62.444502    35.974043    878.41735   -312247.92 
     660    15.135191    161981.86    72.105771    72.105771    35.974578          120    14487.648    17602.652   -29749.022    -93.91555   -2709.7869   -1749.0509    72.105771     62.44543    35.974578    780.42599   -312249.22 
     670    14.772313    161998.33    72.108215    72.108215    35.975797          120    14242.289    17378.159    -30455.53   -145.03758    -2752.077   -1803.9552    72.108215    62.447546    35.975797    388.30599   -312250.32 
     680    14.488373    162017.15    72.111007    72.111008     35.97719          120    14073.773    17009.905   -31485.658   -223.55455   -2775.3927   -1762.9877    72.111007    62.449965     35.97719   -133.99304   -312251.48 
     690     14.12795    162030.92     72.11305     72.11305    35.978209          120    13923.193    16750.898   -32299.526   -272.81547   -2807.5223   -1726.9459     72.11305    62.451733    35.978209   -541.81167   -312252.36 
     700    13.621817    162035.12    72.113673    72.113673     35.97852          120    13879.172    16797.688   -32515.056   -238.60983   -2760.3895   -1738.3129    72.113673    62.452273     35.97852   -612.73218   -312252.91 
     710    13.119478    162030.37    72.112968    72.112969    35.978168          120    14005.433    17059.278   -32184.856   -207.15644   -2656.3386    -1737.032    72.112968    62.451663    35.978168   -373.38155   -312253.61 
     720    12.817249     162021.4    72.111638    72.111638    35.977505          120    14201.132    17411.872   -31517.674   -223.87272   -2602.6366   -1806.6977    72.111638    62.450511    35.977505     31.77656   -312254.73 
     730    12.542252    162014.37    72.110595    72.110595    35.976984          120    14422.471    17643.928    -30896.48   -292.81119   -2580.8113    -1866.337    72.110595    62.449607    35.976984    389.97311   -312255.46 
     740    12.330321    162013.81    72.110511    72.110511    35.976942          120    14585.252    17636.154   -30517.106   -424.73074   -2581.7025   -1937.2587    72.110511    62.449535    35.976942    568.10006    -312256.3 
     750    12.115931    162021.04    72.111583    72.111584    35.977478          120     14594.59    17503.015    -30591.21    -536.4935   -2555.8808   -1884.1286    72.111583    62.450464    35.977478    502.13179   -312256.97 
     760    11.898544    162033.96      72.1135      72.1135    35.978434          120    14507.109    17321.508   -31028.969   -568.44131   -2493.7738   -1803.5443      72.1135    62.452123    35.978434    266.54909   -312257.65 
     770    11.814158    162048.49    72.115656    72.115656    35.979509          120     14321.15    17216.945   -31590.681   -558.82814   -2447.4014   -1807.9494    72.115656    62.453991    35.979509    -17.52869   -312258.65 
     780    11.726299    162060.53    72.117442    72.117442      35.9804          120    14145.206    17181.156   -32016.268   -530.68376   -2451.7737   -1839.3298    72.117442    62.455537      35.9804   -229.96881   -312259.61 
     790    11.465663    162067.62    72.118493    72.118494    35.980925          120    13987.911    17277.666    -32079.42   -488.57417   -2495.8786   -1873.0899    72.118493    62.456448    35.980925   -271.28097   -312260.13 
     800    11.177824    162069.93    72.118835    72.118836    35.981096          120     13976.74     17381.38   -31869.167   -463.24247   -2478.9053   -1906.1593    72.118835    62.456744    35.981096   -170.34898    -312260.6 
     810    10.966869    162069.57    72.118783    72.118784     35.98107          120    14111.105    17461.669   -31551.223   -433.76045   -2445.4005   -1984.8407    72.118783    62.456699     35.98107    7.1837438   -312261.12 
     820     10.76761    162069.35     72.11875     72.11875    35.981053          120    14219.428    17497.323   -31260.001   -427.72363   -2398.9701   -1988.8272     72.11875     62.45667    35.981053    152.25015   -312261.53 
     830    10.557843    162071.22    72.119027    72.119028    35.981191          120    14203.391    17436.872   -31030.257   -482.97541   -2392.7357   -1923.8909    72.119027     62.45691    35.981191    203.33551    -312262.2 
     840    10.413754    162075.51    72.119664    72.119665    35.981509          120    14111.591    17360.821   -31110.883   -481.84736   -2489.4469   -1863.1528    72.119664    62.457462    35.981509    120.50983    -312262.8 
     850     10.20981    162080.76    72.120443    72.120443    35.981898          120    13986.327    17296.604   -31387.271   -461.61426   -2534.2438   -1816.4412    72.120443    62.458136    35.981898   -34.780079   -312263.39 
     860    10.101669    162084.67    72.121022    72.121023    35.982187          120    13838.039    17225.551   -31695.572   -524.97643   -2512.8027   -1900.1647    72.121022    62.458638    35.982187   -210.66066   -312263.87 
     870    10.006185    162085.06    72.121081    72.121081    35.982216          120    13798.585     17130.15   -31828.528   -626.15085   -2552.9759    -2112.867    72.121081    62.458689    35.982216   -299.93097   -312264.23 
     880    9.9804117    162081.36    72.120532    72.120532    35.981942          120    13885.482    17250.236   -31727.321   -704.03083   -2585.5054   -2307.6625    72.120532    62.458213    35.981942   -197.20077   -312264.66 
     890    9.9972092    162075.53    72.119667    72.119668    35.981511          120    14099.568    17370.943   -31415.281   -783.17682   -2551.8533   -2453.6365    72.119667    62.457465    35.981511    18.409951   -312265.36 
     900    9.9791615    162070.79    72.118964    72.118964     35.98116          120    14250.979    17501.984   -31132.006   -809.20253   -2594.6941   -2556.3621    72.118964    62.456855     35.98116    206.98542   -312265.85 
     910     9.968789    162069.52    72.118776    72.118777    35.981066          120    14309.167    17497.877   -30983.967   -808.94029   -2671.1334   -2553.8036    72.118776    62.456693    35.981066    274.35864    -312266.4 
     920    9.9646709    162072.24    72.119178    72.119179    35.981267          120    14341.469    17389.372   -30963.628   -819.84394   -2736.2765   -2456.9656    72.119178    62.457041    35.981267    255.73763   -312266.94 
     930    10.068729    162078.13    72.120052    72.120053    35.981703          120    14380.635    17255.501   -31047.105   -799.44645   -2782.7426   -2427.1323    72.120052    62.457798    35.981703    196.34357   -312267.66 
     940    10.069702    162085.98    72.121216    72.121217    35.982284          120    14383.325    17117.789   -31147.025   -754.91341   -2858.9423    -2388.919    72.121216    62.458806    35.982284     118.0297    -312268.3 
     950     9.955632     162094.3     72.12245    72.122451    35.982899          120    14340.307    16934.598   -31370.322   -781.57086   -2974.7651   -2353.9672     72.12245    62.459875    35.982899   -31.805615   -312268.39 
     960    9.8222744       162101    72.123445    72.123446    35.983396          120    14301.008    16800.941   -31570.573   -888.54293   -3068.4797   -2418.6686    72.123445    62.460736    35.983396   -156.20803   -312268.55 
     970    9.7444668    162104.64    72.123984    72.123985    35.983665          120    14318.592    16794.995    -31678.19   -944.95111   -3121.3402   -2498.4775    72.123984    62.461203    35.983665   -188.20116   -312268.85 
     980    9.6950302    162105.18    72.124064    72.124065    35.983704          120     14424.68    16818.288   -31626.277   -927.18774   -3107.1239   -2585.2229    72.124064    62.461272    35.983704   -127.76981   -312269.24 
     990    9.6891625    162103.93    72.123879     72.12388    35.983612          120    14598.557    16957.322   -31484.957   -849.56818   -3035.6149   -2591.1818    72.123879    62.461112    35.983612     23.64058   -312269.62 
    1000    9.7133567    162103.18    72.123768    72.123768    35.983557          120    14716.341    17089.144   -31303.836   -766.83486   -3009.5027   -2480.4421    72.123768    62.461016    35.983557    167.21614   -312270.13 
Loop time of 290.951 on 1 procs for 1000 steps with 14848 atoms

Performance: 0.297 ns/day, 80.820 hours/ns, 3.437 timesteps/s
100.0% CPU use with 1 MPI tasks x no OpenMP threads

MPI task timing breakdown:
Section |  min time  |  avg time  |  max time  |%varavg| %total
---------------------------------------------------------------
Pair    | 241.86     | 241.86     | 241.86     |   0.0 | 83.13
Bond    | 0.00013065 | 0.00013065 | 0.00013065 |   0.0 |  0.00
Kspace  | 10.757     | 10.757     | 10.757     |   0.0 |  3.70
Neigh   | 31.757     | 31.757     | 31.757     |   0.0 | 10.91
Comm    | 0.35918    | 0.35918    | 0.35918    |   0.0 |  0.12
Output  | 0.010522   | 0.010522   | 0.010522   |   0.0 |  0.00
Modify  | 6.112      | 6.112      | 6.112      |   0.0 |  2.10
Other   |            | 0.09517    |            |       |  0.03

Nlocal:    14848 ave 14848 max 14848 min
Histogram: 1 0 0 0 0 0 0 0 0 0
Nghost:    47006 ave 47006 max 47006 min
Histogram: 1 0 0 0 0 0 0 0 0 0
Neighs:    1.01525e+07 ave 1.01525e+07 max 1.01525e+07 min
Histogram: 1 0 0 0 0 0 0 0 0 0

Total # of neighbors = 10152455
Ave neighs/atom = 683.759
Ave special neighs/atom = 0
Neighbor list builds = 115
Dangerous builds = 0
ERROR: Unknown command: thermal		0 (../input.cpp:246)
Last command: thermal		0
