LAMMPS (16 Mar 2018)
Reading data file ...
  triclinic box = (0 0 0) to (9.208 7.97436 18.376) with tilt (-4.604 0 0)
  1 by 1 by 1 MPI processor grid
  reading atoms ...
  116 atoms
Finding 1-2 1-3 1-4 neighbors ...
  special bond factors lj:   0          0          0         
  special bond factors coul: 0          0          0         
  0 = max # of 1-2 neighbors
  0 = max # of 1-3 neighbors
  0 = max # of 1-4 neighbors
  1 = max # of special neighbors
Replicating atoms ...
  triclinic box = (0 0 0) to (73.664 63.7949 36.752) with tilt (-36.832 0 0)
  1 by 1 by 1 MPI processor grid
  14848 atoms
Finding 1-2 1-3 1-4 neighbors ...
  special bond factors lj:   0          0          0         
  special bond factors coul: 0          0          0         
  0 = max # of 1-2 neighbors
  0 = max # of 1-3 neighbors
  0 = max # of 1-4 neighbors
  1 = max # of special neighbors
  Time spent = 0.00480795 secs
PPPM initialization ...
WARNING: System is not charge neutral, net charge = -0.2048 (../kspace.cpp:302)
  using 12-bit tables for long-range coulomb (../kspace.cpp:321)
  G vector (1/distance) = 0.201681
  grid = 36 50 24
  stencil order = 5
  estimated absolute RMS force accuracy = 0.00105653
  estimated relative force accuracy = 7.33721e-05
  using double precision FFTs
  3d grid and FFT values/proc = 65395 43200
Neighbor list info ...
  update every 1 steps, delay 0 steps, check yes
  max neighbors/atom: 2000, page size: 100000
  master list distance cutoff = 15.3
  ghost atom cutoff = 15.3
  binsize = 7.65, bins = 15 9 5
  3 neighbor lists, perpetual/occasional/extra = 3 0 0
  (1) pair morse, perpetual
      attributes: half, newton on
      pair build: half/bin/newton/tri
      stencil: half/bin/3d/newton/tri
      bin: standard
  (2) pair buck, perpetual, copy from (1)
      attributes: half, newton on
      pair build: copy
      stencil: none
      bin: none
  (3) pair lj/cut/coul/long, perpetual, copy from (1)
      attributes: half, newton on
      pair build: copy
      stencil: none
      bin: none
Setting up Verlet run ...
  Unit style    : metal
  Current step  : 0
  Time step     : 0.001
Per MPI rank memory allocation (min/avg/max) = 145.7 | 145.7 | 145.7 Mbytes
Step Temp Volume Cella Cellb Cellc CellGamma Pxx Pyy Pzz Pxy Pxz Pyz Lx Ly Lz Press PotEng 
       0          110    172711.88       73.664    73.664001       36.752          120   -210212.19   -210225.06   -281211.87    9.9608728   -2.8007382    3.7397607       73.664    63.794896       36.752   -233883.04   -309191.56 
      10    269.27425    172526.85    73.637685    73.637685    36.738871          120   -213621.56   -213701.34   -261082.86     78.73415   -9.3592462   -114.76403    73.637685    63.772106    36.738871   -229468.58   -309553.43 
      20    516.22066    171986.97    73.560795    73.560795    36.700509          120   -212605.71   -212287.83   -201160.04    19.946045   -175.38091   -239.17883    73.560795    63.705518    36.700509   -208684.53   -310125.35 
      30    470.29027    171171.39    73.444332    73.444333    36.642405          120   -191677.04   -191184.48   -118459.94   -194.10996   -615.45449    -303.3999    73.444332    63.604658    36.642405   -167107.16   -310168.75 
      40    238.03149    170254.46    73.312956    73.312957    36.576859          120   -156372.96   -156158.56     -39365.6   -410.76867   -1029.0636   -362.57959    73.312956    63.490883    36.576859   -117299.04    -309826.8 
      50    308.18113    169421.88    73.193254    73.193255    36.517138          120   -116462.48   -116489.96   -3058.9881    -491.2887   -1124.5851   -537.87026    73.193254    63.387218    36.517138   -78670.475   -310019.17 
      60    634.85689    168746.04      73.0958    73.095801    36.468517          120   -83047.044   -82923.193    -35944.31   -572.99617   -2053.0657   -429.31581      73.0958     63.30282    36.468517   -67304.849   -310703.12 
      70    834.02061    168187.35    73.015041    73.015042    36.428225          120   -55144.515   -54677.048   -97172.353    -1092.477   -2489.1389   -273.92788    73.015041    63.232881    36.428225   -68997.972   -311185.06 
      80    683.39382    167684.49      72.9422    72.942201    36.391884          120   -33804.958   -33914.769   -138292.96   -1598.5651   -2962.2717    180.99943      72.9422    63.169799    36.391884   -68670.894   -310995.87 
      90      409.536    167201.24    72.872062    72.872062    36.356891          120   -22722.948   -23103.666   -150674.57   -1817.0287   -3574.7365    419.98659    72.872062    63.109058    36.356891   -65500.396    -310542.2 
     100    444.59431    166727.36    72.803153    72.803153    36.322511          120   -6783.2043   -6503.9115   -129545.35   -1646.8018   -3351.4674    10.005869    72.803153     63.04938    36.322511   -47610.821   -310663.62 
     110    610.43886    166280.44    72.738044    72.738044    36.290027          120    11565.219    11958.428    -85943.23   -1709.9678    -2928.056   -129.44107    72.738044    62.992994    36.290027   -20806.528   -311049.04 
     120    583.82941    165889.46    72.680988    72.680988    36.261561          120    20371.473    20661.797    -34160.85   -1732.0718   -2806.5211   -658.28717    72.680988    62.943582    36.261561    2290.8067   -311072.56 
     130    472.67561    165573.14    72.634763    72.634763    36.238499          120     16674.29    17666.973    5609.5061   -1807.6665   -2867.9623   -664.45712    72.634763     62.90355    36.238499    13316.923   -310918.92 
     140    444.06906    165330.87    72.599318    72.599319    36.220815          120    10827.041    11198.802    14844.309   -1535.9473   -2939.8562   -542.85845    72.599318    62.872854    36.220815    12290.051   -310911.41 
     150    510.85026    165145.84    72.572225    72.572225    36.207298          120     3914.153    4663.7843   -12893.944   -1682.2417   -2582.4292   -171.20902    72.572225    62.849391    36.207298    -1438.669   -311092.48 
     160    556.80412    164989.01    72.549246    72.549246    36.195834          120   -6283.2852   -4429.5675   -52403.407   -1548.6931    -2593.392   -16.181386    72.549246     62.82949    36.195834   -21038.753   -311247.32 
     170    507.77526     164830.1    72.525945    72.525946    36.184209          120    -10999.89   -8717.5657   -80973.604   -808.72328   -2954.6247   -274.38749    72.525945    62.809312    36.184209   -33563.686    -311222.7 
     180    429.54998    164652.47    72.499884    72.499885    36.171206          120   -6605.0714   -4297.2277   -94502.991   -597.85572   -2913.3924   -326.56333    72.499884    62.786742    36.171206   -35135.097   -311131.82 
     190    423.19471    164456.31    72.471082    72.471082    36.156836          120   -383.69478    1699.4248   -87570.408   -144.36477   -2487.7387   -131.80047    72.471082    62.761798    36.156836   -28751.559      -311171 
     200    458.98204    164252.41    72.441118    72.441119    36.141887          120    3558.3005    5727.6172   -64784.891   -533.36472   -2326.1566   -140.71216    72.441118    62.735849    36.141887   -18499.658   -311293.98 
     210    451.41985    164055.19    72.412113    72.412113    36.127416          120    6925.0216    9526.5613   -39446.157   -758.40289   -2619.0963    158.07848    72.412113     62.71073    36.127416   -7664.8581   -311336.39 
     220    411.25526    163877.46    72.385954    72.385955    36.114365          120    10291.598    11639.028   -21961.406   -262.87871   -2635.1559    22.251464    72.385954    62.688076    36.114365   -10.260069   -311310.92 
     230     395.0499    163725.65    72.363595    72.363595     36.10321          120    11043.929    11233.155   -19292.748   -65.847369   -2840.8568   -480.79316    72.363595    62.668712     36.10321    994.77885   -311325.65 
     240    407.09809    163596.74    72.344599    72.344599    36.093732          120    8737.1435    8292.9775   -29661.724   -109.30835    -2970.353   -589.11785    72.344599    62.652261    36.093732   -4210.5343   -311395.16 
     250    415.37665    163480.45    72.327453    72.327453    36.085178          120    6184.1119    5438.7937   -46382.581   -197.81091   -2829.8814   -896.30813    72.327453    62.637412    36.085178   -11586.558   -311460.26 
     260    394.19969    163365.44    72.310487    72.310488    36.076714          120    6542.8538    5788.1413   -61229.807   -291.13259   -2540.2675   -525.50248    72.310487     62.62272    36.076714   -16299.604   -311468.84 
     270    365.70504     163245.1    72.292728    72.292729    36.067853          120    7914.0454    7393.6463   -66836.927   -794.36809   -1875.9194    -105.1078    72.292728     62.60734    36.067853   -17176.412   -311458.99 
     280    357.13976    163118.88     72.27409    72.274091    36.058555          120    9751.3557    10718.609   -61078.965   -603.41112    -1200.842    98.310685     72.27409    62.591199    36.058555   -13536.334   -311484.12 
     290    360.75452    162992.14    72.255368    72.255369    36.049214          120    13337.984    15694.619   -47384.254   -697.45941   -1078.4354    748.89989    72.255368    62.574985    36.049214   -6117.2171    -311532.9 
     300    355.31576    162874.05    72.237913    72.237913    36.040505          120    16105.688    18974.738    -32624.13   -592.12367   -1163.6446    469.57199    72.237913    62.559868    36.040505    818.76535   -311564.07 
     310    338.68956     162772.1    72.222837    72.222838    36.032984          120    16194.788    19707.821   -21933.386    57.706334   -2162.6125    280.16937    72.222837    62.546813    36.032984    4656.4078   -311570.67 
     320    330.54968     162688.8    72.210516    72.210516    36.026836          120    14543.995    17379.784   -19421.031   -10.435423   -2700.8616    67.206233    72.210516    62.536142    36.026836    4167.5823   -311593.14 
     330    327.33399    162621.11    72.200499      72.2005    36.021839          120    12632.925    15144.726   -24477.894   -154.58667   -2332.3681   -216.03606    72.200499    62.527467    36.021839    1099.9192   -311622.59 
     340      324.205    162562.92    72.191886    72.191887    36.017542          120    11935.761    13991.746   -35536.108   -45.239102   -2038.2577    -516.4537    72.191886    62.520008    36.017542   -3202.8671   -311652.73 
     350    311.57445    162507.53    72.183687    72.183687    36.013451          120    12401.743    14012.476   -45073.467    -336.0195   -1232.3857   -1061.8718    72.183687    62.512907    36.013451   -6219.7494   -311662.92 
     360    296.29167    162450.72    72.175274    72.175275    36.009254          120    13748.101    15614.278   -48081.982   -817.33461   -913.02689   -1481.9295    72.175274    62.505621    36.009254   -6239.8678   -311665.86 
     370    288.35976    162392.38    72.166632    72.166633    36.004942          120    15527.791    17355.884   -45706.973   -1084.0968   -1168.0149   -1426.8292    72.166632    62.498138    36.004942   -4274.4325   -311681.71 
     380    287.55293     162335.1    72.158147    72.158147    36.000709          120    17445.117    18587.621   -39195.098   -931.07708   -1085.0851   -1278.7241    72.158147    62.490789    36.000709   -1054.1203   -311710.05 
     390    282.85744    162282.84    72.150402    72.150403    35.996845          120    17774.288    19744.244   -29733.368     -735.124   -1108.1089   -1174.2697    72.150402    62.484082    35.996845    2595.0548   -311730.95 
     400    273.94972    162239.57    72.143989     72.14399    35.993645          120    18196.415    19907.088    -23297.64   -305.50761   -1732.1137   -746.12344    72.143989    62.478528    35.993645    4935.2876   -311742.71 
     410    267.89994    162207.22    72.139195    72.139195    35.991253          120    18785.037    19473.629   -22481.847    4.0201335   -2123.9945   -632.08455    72.139195    62.474376    35.991253    5258.9396   -311758.91 
     420    263.43239    162185.01    72.135901    72.135902     35.98961          120    18098.885    18895.649   -25972.401    -106.6508   -2524.0389   -553.07698    72.135901    62.471524     35.98961    3674.0442   -311777.11 
     430    259.42256    162169.78    72.133643    72.133644    35.988484          120    16802.958    17589.901    -32178.14   -337.12417    -2735.715    163.12834    72.133643    62.469568    35.988484    738.23975   -311795.91 
     440    251.10431    162157.09    72.131762    72.131762    35.987545          120     16520.08    16549.103   -37906.976   -184.56192   -2296.3083     493.0468    72.131762    62.467939    35.987545   -1612.5975   -311804.79 
     450    242.91112    162143.74    72.129782    72.129783    35.986557          120    17743.923    17003.531   -40128.968    -152.2743   -1925.7584     637.8754    72.129782    62.466224    35.986557   -1793.8381    -311812.2 
     460    239.53014    162129.53    72.127676    72.127676    35.985506          120    20115.493    18409.193   -38422.605    43.918715   -1674.8692    210.14747    72.127676      62.4644    35.985506    34.027132   -311828.61 
     470      237.302    162116.85    72.125795    72.125795    35.984568          120     22159.88    19296.011   -33305.945    309.61761   -1497.3327   -322.36965    72.125795    62.462771    35.984568    2716.6485   -311846.94 
     480    228.21138    162108.99     72.12463     72.12463    35.983987          120    23045.291    19851.966   -27477.342     631.7419   -1489.1986   -585.58475     72.12463    62.461762    35.983987    5139.9715   -311851.29 
     490    223.69679    162108.55    72.124565    72.124565    35.983954          120    22607.002    20730.417   -25254.738    649.71109   -1771.9725   -477.34182    72.124565    62.461706    35.983954    6027.5604   -311863.27 
     500    220.56733       162116    72.125669     72.12567    35.984505          120    21181.805    20737.112   -26115.142    384.86531   -2588.2038    157.20044    72.125669    62.462663    35.984505    5267.9248   -311877.31 
     510    215.05125    162129.72    72.127704    72.127705    35.985521          120    20019.621    20169.665   -28835.477    -69.66118     -2895.37    416.20847    72.127704    62.464425    35.985521    3784.6034   -311886.72 
     520    209.71855    162147.28    72.130308    72.130309     35.98682          120    19934.671    19479.637   -32124.585   -236.52308   -2710.4481    398.12642    72.130308     62.46668     35.98682    2429.9075   -311895.65 
     530    205.52567    162166.54    72.133164    72.133165    35.988245          120    19529.149    19255.877   -35166.276   -267.30906   -2424.7211    661.99534    72.133164    62.469153    35.988245    1206.2501   -311905.49 
     540    199.21211    162185.82    72.136021    72.136022     35.98967          120    18944.398    19134.454   -36534.428   -249.89156    -2075.475    694.99646    72.136021    62.471628     35.98967    514.80794   -311910.31 
     550     195.0936    162204.21    72.138748    72.138749    35.991031          120    18649.363    18848.429   -35819.101   -135.73004   -1545.8417    315.09103    72.138748    62.473989    35.991031    559.56377    -311919.2 
     560    192.10742    162221.92    72.141374    72.141374     35.99234          120    18936.346    19483.303   -33665.535    -285.1241    -1291.667    412.54832    72.141374    62.476263     35.99234    1584.7047   -311929.89 
     570    189.07516    162240.33    72.144103    72.144104    35.993702          120     19693.34    20096.508   -30933.694   -14.546256   -1611.1714    118.94709    72.144103    62.478627    35.993702    2952.0512   -311939.43 
     580    185.88393    162261.11    72.147182    72.147182    35.995238          120    19464.531    20309.129   -29389.841    354.12442    -1723.317    170.17138    72.147182    62.481293    35.995238     3461.273   -311948.77 
     590    183.63074    162284.79    72.150692    72.150692    35.996989          120    19239.149    20005.803   -29125.674    814.47559   -1961.0091   -166.67755    72.150692    62.484333    35.996989    3373.0931   -311959.53 
     600    181.19205    162310.97    72.154572    72.154573    35.998925          120    18856.055    19245.546   -31160.218    938.36627   -2160.4071   -191.95334    72.154572    62.487693    35.998925    2313.7942    -311969.2 
     610    177.92063    162338.12    72.158594    72.158595    36.000932          120    18102.415    18467.102   -34083.454    1095.4913   -2265.9372   -412.03429    72.158594    62.491176    36.000932    828.68794   -311976.83 
     620    173.78772     162364.3    72.162473    72.162474    36.002867          120     17787.77    18203.585   -36085.476    791.36236   -2118.1047   -911.73435    72.162473    62.494535    36.002867    -31.37391    -311982.4 
     630    170.61611    162388.45    72.166051    72.166052    36.004652          120    18194.728     18106.63   -36980.241    266.96951   -1412.6637   -1149.7248    72.166051    62.497634    36.004652   -226.29442   -311989.11 
     640    167.80402    162410.47    72.169313    72.169314     36.00628          120    18544.811    18256.081   -36561.313    210.25175   -1133.8439   -959.79448    72.169313    62.500459     36.00628    79.859431   -311996.78 
     650    163.94605    162430.97    72.172349    72.172349    36.007794          120     18879.86    18634.912   -34983.498   -68.240103     -1195.66   -1187.0931    72.172349    62.503088    36.007794    843.75784   -312001.58 
     660     160.4558    162451.09    72.175328    72.175329    36.009281          120    19360.521    19409.359    -33260.71   -22.440231   -1151.3304   -904.37476    72.175328    62.505668    36.009281      1836.39   -312006.57 
     670     156.9271    162472.12    72.178443    72.178444    36.010835          120    19359.229    19649.166   -31839.421    293.92339   -1212.4229   -449.59581    72.178443    62.508366    36.010835    2389.6584      -312011 
     680    154.62127    162494.73    72.181791    72.181792    36.012505          120    18646.344    19435.028   -31430.651    325.71397   -1607.9307   -485.94658    72.181791    62.511265    36.012505    2216.9071   -312017.67 
     690      152.916    162518.54    72.185316    72.185317    36.014264          120    17770.261    18591.867   -33093.766    102.21214   -1624.3041    -549.4842    72.185316    62.514318    36.014264    1089.4544   -312024.28 
     700    150.16226    162542.09    72.188803    72.188804    36.016004          120    17386.773    17967.935   -35020.493    -44.36827   -1781.2665   -626.52496    72.188803    62.517338    36.016004     111.4052   -312029.12 
     710    146.91946    162564.12    72.192064    72.192065    36.017631          120    17191.156    18069.261   -36188.706   -434.62951   -2049.8863    -890.8828    72.192064    62.520162    36.017631   -309.42971   -312032.97 
     720    145.88661    162584.16    72.195031    72.195032    36.019111          120    16965.575    18083.658   -36321.043   -574.29835    -1868.008   -1210.6512    72.195031    62.522732    36.019111   -423.93673   -312040.35 
     730    143.69646     162602.2    72.197701    72.197701    36.020443          120    16619.723    18148.589   -35917.862   -484.73976   -1886.2326   -1000.0285    72.197701    62.525043    36.020443   -383.18357   -312045.29 
     740    142.10775    162618.42    72.200102    72.200102    36.021641          120    16291.565    17793.251   -35269.781   -326.51268   -1729.7167   -684.07456    72.200102    62.527123    36.021641   -394.98826   -312051.55 
     750    139.95593    162632.94    72.202251    72.202251    36.022713          120    16206.065    17236.252   -35095.628    129.95214    -1492.739   -426.79004    72.202251    62.528984    36.022713   -551.10364   -312055.89 
     760    137.35464    162645.71     72.20414    72.204141    36.023656          120    16117.325    16525.747   -34562.033    218.57579   -1393.0037   -162.72898     72.20414     62.53062    36.023656   -639.65392   -312059.09 
     770    136.08092    162656.72    72.205769     72.20577    36.024468          120    16253.389    16475.113   -34919.353    278.10497   -1456.1422    -200.6079    72.205769    62.532031    36.024468    -730.2836   -312064.56 
     780    133.22481    162665.98     72.20714     72.20714    36.025152          120    16699.573     16554.74   -35768.485    178.19955   -1374.5516   -723.14322     72.20714    62.533218    36.025152    -838.0572   -312067.08 
     790    131.10133    162673.43    72.208242    72.208243    36.025702          120    16579.701    16315.958   -36415.141    245.27038   -1608.1008   -512.17291    72.208242    62.534173    36.025702   -1173.1608   -312070.65 
     800    129.44316    162678.77    72.209031    72.209032    36.026096          120    16515.803    16065.917   -37179.869    446.54377   -1962.7924    -462.3755    72.209031    62.534856    36.026096   -1532.7162   -312074.29 
     810    127.78758    162681.72    72.209468    72.209468    36.026313          120    16616.034    16437.476   -37337.109    485.11675    -2067.704   -297.13731    72.209468    62.535234    36.026313   -1427.8662   -312078.07 
     820    126.37043     162682.5    72.209584    72.209585    36.026372          120    16345.476    16783.067   -37247.645    468.26388   -1938.3648   -253.94356    72.209584    62.535335    36.026372   -1373.0341   -312082.27 
     830    125.29816    162681.39    72.209419     72.20942    36.026289          120    16379.157    16834.945   -36672.125    162.80709   -1594.0975    3.5282788    72.209419    62.535192    36.026289   -1152.6742   -312086.44 
     840    121.87135     162678.8    72.209035    72.209036    36.026098          120    16670.302    16965.685   -35899.279   -4.4595398   -1476.0857    672.89509    72.209035     62.53486    36.026098    -754.4305   -312086.15 
     850    121.06548    162675.34    72.208524    72.208525    36.025843          120     16922.37    17163.782   -35482.558    -202.7422   -1092.6581    596.44944    72.208524    62.534417    36.025843   -465.46893   -312090.31 
     860    119.28679    162671.45    72.207949    72.207949    36.025556          120    16973.001    17267.808   -35442.601   -261.61317   -1033.9515    246.44845    72.207949    62.533918    36.025556   -400.59728   -312092.24 
     870    119.36489    162667.26    72.207329    72.207329    36.025246          120    16971.749    17267.159   -35343.433   -241.25593   -859.69056   -58.522975    72.207329    62.533382    36.025246    -368.1747    -312098.1 
     880    118.92232    162662.82    72.206671    72.206672    36.024918          120    16751.669    17200.992   -35502.975   -384.19437   -748.25764   -205.88547    72.206671    62.532812    36.024918   -516.77139   -312102.26 
     890    117.59631    162657.96    72.205952    72.205953    36.024559          120    17038.643     16966.76   -35819.637   -481.65064   -957.35741   -385.69076    72.205952    62.532189    36.024559   -604.74472   -312104.58 
     900    115.65499    162652.63    72.205164    72.205165    36.024167          120    17364.792    17044.781   -35326.955   -518.39386   -1134.1873   -304.64348    72.205164    62.531507    36.024167   -305.79394   -312106.04 
     910    114.79529     162647.2     72.20436    72.204361    36.023765          120    17458.022    17067.026   -35234.394   -193.21682   -1159.6629    41.952518     72.20436    62.530811    36.023765    -236.4487    -312109.6 
     920    113.51109    162641.81    72.203563    72.203564    36.023368          120    17660.792    17399.487   -35081.082    158.91019   -875.23616    124.17962    72.203563     62.53012    36.023368   -6.9345616   -312111.21 
     930    111.68572    162636.76    72.202815    72.202816    36.022995          120    17795.887    17770.096   -34742.159   -144.61719   -887.13076   -97.695956    72.202815    62.529473    36.022995    274.60798      -312112 
     940    112.11281    162632.35    72.202163    72.202164    36.022669          120    17523.843    17932.707   -34714.643   -343.96034   -832.57268   -102.53983    72.202163    62.528908    36.022669    247.30201   -312117.02 
     950    110.51988    162628.55      72.2016    72.201601    36.022388          120    17415.184    17795.981   -34805.312   -339.77494   -772.71118    -606.9435      72.2016    62.528421    36.022388    135.28427   -312117.64 
     960    109.96092    162625.15    72.201098    72.201098    36.022138          120    17276.544    17697.895   -35208.119   -409.19932   -771.84871   -629.97812    72.201098    62.527986    36.022138   -77.893031   -312120.02 
     970    108.63425    162621.87    72.200612    72.200612    36.021895          120    17314.899    17821.197   -35629.155   -171.21472   -1019.3853   -506.64756    72.200612    62.527565    36.021895   -164.35284    -312120.9 
     980    108.81017     162618.6    72.200127    72.200128    36.021653          120     17226.27    18089.484    -35192.78    144.54824   -1251.8371   -589.20733    72.200127    62.527145    36.021653    40.991477   -312124.09 
     990    108.62224    162615.57    72.199679    72.199679     36.02143          120    17179.709    18412.525   -34923.525    168.97571   -1023.2687    -357.4965    72.199679    62.526757     36.02143    222.90298   -312126.49 
    1000    106.71975       162613      72.1993      72.1993    36.021241          120     17347.66    18430.946   -35129.323     211.4766   -1034.0135   -105.62698      72.1993    62.526428    36.021241    216.42775   -312125.55 
Loop time of 387.283 on 1 procs for 1000 steps with 14848 atoms

Performance: 0.223 ns/day, 107.579 hours/ns, 2.582 timesteps/s
100.0% CPU use with 1 MPI tasks x no OpenMP threads

MPI task timing breakdown:
Section |  min time  |  avg time  |  max time  |%varavg| %total
---------------------------------------------------------------
Pair    | 316.52     | 316.52     | 316.52     |   0.0 | 81.73
Bond    | 0.00054002 | 0.00054002 | 0.00054002 |   0.0 |  0.00
Kspace  | 14.552     | 14.552     | 14.552     |   0.0 |  3.76
Neigh   | 47.149     | 47.149     | 47.149     |   0.0 | 12.17
Comm    | 0.50968    | 0.50968    | 0.50968    |   0.0 |  0.13
Output  | 0.013689   | 0.013689   | 0.013689   |   0.0 |  0.00
Modify  | 8.3633     | 8.3633     | 8.3633     |   0.0 |  2.16
Other   |            | 0.1771     |            |       |  0.05

Nlocal:    14848 ave 14848 max 14848 min
Histogram: 1 0 0 0 0 0 0 0 0 0
Nghost:    46893 ave 46893 max 46893 min
Histogram: 1 0 0 0 0 0 0 0 0 0
Neighs:    1.01206e+07 ave 1.01206e+07 max 1.01206e+07 min
Histogram: 1 0 0 0 0 0 0 0 0 0

Total # of neighbors = 10120597
Ave neighs/atom = 681.613
Ave special neighs/atom = 0
Neighbor list builds = 139
Dangerous builds = 0
PPPM initialization ...
  using 12-bit tables for long-range coulomb (../kspace.cpp:321)
  G vector (1/distance) = 0.202666
  grid = 36 50 24
  stencil order = 5
  estimated absolute RMS force accuracy = 0.00099385
  estimated relative force accuracy = 6.90191e-05
  using double precision FFTs
  3d grid and FFT values/proc = 65395 43200
Setting up Verlet run ...
  Unit style    : metal
  Current step  : 0
  Time step     : 0.001
Per MPI rank memory allocation (min/avg/max) = 152.6 | 152.6 | 152.6 Mbytes
Step Temp Volume Cella Cellb Cellc CellGamma Pxx Pyy Pzz Pxy Pxz Pyz Lx Ly Lz Press PotEng 
       0    106.71975       162613      72.1993      72.1993    36.021241          120     17361.33    18445.389   -35120.482    211.92426   -1033.8885   -105.68042      72.1993    62.526428    36.021241    228.74546   -312125.35 
  100000     109.8545     162877.9    72.238483    72.238483    36.040789          120    17718.562    18490.302   -36123.741   -32.925864   -401.40455    252.66836    72.238483    62.560362    36.040789    28.374332   -312172.36 
Loop time of 36173.7 on 1 procs for 100000 steps with 14848 atoms

Performance: 0.239 ns/day, 100.483 hours/ns, 2.764 timesteps/s
99.1% CPU use with 1 MPI tasks x no OpenMP threads

MPI task timing breakdown:
Section |  min time  |  avg time  |  max time  |%varavg| %total
---------------------------------------------------------------
Pair    | 31321      | 31321      | 31321      |   0.0 | 86.58
Bond    | 0.057783   | 0.057783   | 0.057783   |   0.0 |  0.00
Kspace  | 1486.4     | 1486.4     | 1486.4     |   0.0 |  4.11
Neigh   | 2460.5     | 2460.5     | 2460.5     |   0.0 |  6.80
Comm    | 44.215     | 44.215     | 44.215     |   0.0 |  0.12
Output  | 0.00014305 | 0.00014305 | 0.00014305 |   0.0 |  0.00
Modify  | 844.81     | 844.81     | 844.81     |   0.0 |  2.34
Other   |            | 17.15      |            |       |  0.05

Nlocal:    14848 ave 14848 max 14848 min
Histogram: 1 0 0 0 0 0 0 0 0 0
Nghost:    46847 ave 46847 max 46847 min
Histogram: 1 0 0 0 0 0 0 0 0 0
Neighs:    1.01038e+07 ave 1.01038e+07 max 1.01038e+07 min
Histogram: 1 0 0 0 0 0 0 0 0 0

Total # of neighbors = 10103786
Ave neighs/atom = 680.481
Ave special neighs/atom = 0
Neighbor list builds = 7212
Dangerous builds = 0
 
All done!
Total wall time: 10:09:22
