LAMMPS (16 Mar 2018)
Reading data file ...
  triclinic box = (0 0 0) to (9.208 7.97436 18.376) with tilt (-4.604 0 0)
  1 by 1 by 1 MPI processor grid
  reading atoms ...
  116 atoms
Finding 1-2 1-3 1-4 neighbors ...
  special bond factors lj:   0          0          0         
  special bond factors coul: 0          0          0         
  0 = max # of 1-2 neighbors
  0 = max # of 1-3 neighbors
  0 = max # of 1-4 neighbors
  1 = max # of special neighbors
Replicating atoms ...
  triclinic box = (0 0 0) to (73.664 63.7949 36.752) with tilt (-36.832 0 0)
  1 by 1 by 1 MPI processor grid
  14848 atoms
Finding 1-2 1-3 1-4 neighbors ...
  special bond factors lj:   0          0          0         
  special bond factors coul: 0          0          0         
  0 = max # of 1-2 neighbors
  0 = max # of 1-3 neighbors
  0 = max # of 1-4 neighbors
  1 = max # of special neighbors
  Time spent = 0.00273299 secs
PPPM initialization ...
WARNING: System is not charge neutral, net charge = -0.2048 (../kspace.cpp:302)
  using 12-bit tables for long-range coulomb (../kspace.cpp:321)
  G vector (1/distance) = 0.201681
  grid = 36 50 24
  stencil order = 5
  estimated absolute RMS force accuracy = 0.00105653
  estimated relative force accuracy = 7.33721e-05
  using double precision FFTs
  3d grid and FFT values/proc = 65395 43200
Neighbor list info ...
  update every 1 steps, delay 0 steps, check yes
  max neighbors/atom: 2000, page size: 100000
  master list distance cutoff = 15.3
  ghost atom cutoff = 15.3
  binsize = 7.65, bins = 15 9 5
  3 neighbor lists, perpetual/occasional/extra = 3 0 0
  (1) pair morse, perpetual
      attributes: half, newton on
      pair build: half/bin/newton/tri
      stencil: half/bin/3d/newton/tri
      bin: standard
  (2) pair buck, perpetual, copy from (1)
      attributes: half, newton on
      pair build: copy
      stencil: none
      bin: none
  (3) pair lj/cut/coul/long, perpetual, copy from (1)
      attributes: half, newton on
      pair build: copy
      stencil: none
      bin: none
Setting up Verlet run ...
  Unit style    : metal
  Current step  : 0
  Time step     : 0.001
Per MPI rank memory allocation (min/avg/max) = 145.7 | 145.7 | 145.7 Mbytes
Step Temp Volume Cella Cellb Cellc CellGamma Pxx Pyy Pzz Pxy Pxz Pyz Lx Ly Lz Press PotEng 
       0          290    172711.88       73.664    73.664001       36.752          120   -208055.38   -208101.91   -279082.78    24.133829   -7.3766384    9.8620531       73.664    63.794896       36.752   -231746.69   -309191.56 
      10    355.27511    172642.42    73.654124    73.654125    36.747073          120   -209648.52    -209735.6   -256818.71    115.74886   -24.013986   -174.17013    73.654124    63.786343    36.747073   -225400.95   -309348.64 
      20    624.01557    172438.49    73.625112    73.625112    36.732598          120   -206389.36   -206022.09   -197331.76    33.194646   -259.84142   -381.82165    73.625112    63.761218    36.732598   -203247.74   -309905.23 
      30    635.70317    172116.79    73.579298    73.579298    36.709741          120    -178562.7   -178157.78   -117924.33   -203.72066   -827.95847    -455.0401    73.579298    63.721542    36.709741   -158214.94   -309987.06 
      40    418.16433       171712    73.521571    73.521572     36.68094          120   -132625.48   -132831.45   -38130.848   -647.60124   -1147.6746   -488.71265    73.521571    63.671549     36.68094   -101195.93   -309612.02 
      50    505.02903    171270.06    73.458442    73.458442    36.649444          120   -91519.678   -92136.313   -5884.0179    -683.1778   -1187.9436    -624.2538    73.458442    63.616877    36.649444   -63180.003   -309805.33 
      60    800.72227    170827.96    73.395181    73.395181    36.617882          120   -67711.004   -67576.199   -44061.108    -674.6624   -2053.7607   -453.24225    73.395181    63.562092    36.617882   -59782.771   -310404.49 
      70    973.69318    170401.95    73.334119    73.334119    36.587418          120   -52767.488   -52590.991   -107229.44   -1662.5581   -2430.4361   -508.11463    73.334119    63.509211    36.587418   -70862.638    -310797.5 
      80    835.96739    169995.55    73.275774    73.275774    36.558309          120   -44139.546   -45016.275   -153298.06   -1773.5031   -2866.8693    73.405292    73.275774    63.458682    36.558309   -80817.961   -310601.38 
      90    570.68248     169608.8    73.220163    73.220164    36.530564          120   -38917.008   -39662.294   -167770.26   -2010.9136   -3325.7384   -413.02107    73.220163    63.410522    36.530564    -82116.52   -310146.35 
     100    586.57292    169243.23    73.167519    73.167519    36.504298          120   -23650.017   -23847.022   -147497.79   -1753.4995   -3073.6758   -842.02198    73.167519     63.36493    36.504298   -64998.276    -310219.2 
     110    757.73213     168905.5    73.118818    73.118818    36.480001          120    -3989.092   -4318.2552   -105161.72   -1838.3986    -2026.671   -1017.7546    73.118818    63.322754    36.480001   -37823.023   -310596.15 
     120    765.69788    168603.44    73.075204    73.075205    36.458242          120    6983.8481    6945.5606   -55147.418   -1836.1017   -1468.8527   -1488.2443    73.075204    63.284984    36.458242   -13739.336   -310664.37 
     130     663.2872    168340.41    73.037185    73.037185    36.439273          120    5832.4765    6898.1742   -15938.583   -1725.2823   -1392.0283   -1469.0859    73.037185    63.252058    36.439273   -1069.3107   -310514.32 
     140    614.45894    168113.42    73.004341    73.004342    36.422887          120    1148.0158    990.38926   -3306.2443   -1231.4943   -1158.6475   -1311.9505    73.004341    63.223615    36.422887   -389.27976    -310458.4 
     150    663.80126    167914.24    72.975499      72.9755    36.408497          120    -6829.396   -5724.7379   -25156.506    -1862.263   -877.56815   -677.33296    72.975499    63.198637    36.408497   -12570.213   -310591.88 
     160    725.43343    167730.39    72.948855    72.948855    36.395204          120   -17091.973   -15538.545   -60502.727   -1644.5722   -1211.5353   -760.96729    72.948855    63.175562    36.395204   -31044.415   -310758.77 
     170    710.46716    167548.66      72.9225      72.9225    36.382055          120   -21971.608    -19880.06   -90836.639   -753.11496   -2085.9524   -1117.3315      72.9225    63.152738    36.382055   -44229.436   -310783.47 
     180    634.99611    167360.39    72.895176    72.895177    36.368423          120   -19253.118   -17350.887   -108534.16    -656.4589   -2385.2417   -1248.5034    72.895176    63.129075    36.368423   -48379.387   -310689.18 
     190     608.2638    167162.92    72.866495    72.866495    36.354114          120   -14543.656   -13380.714   -107763.46    22.963057   -1871.6163   -1329.2277    72.866495    63.104236    36.354114   -45229.276   -310683.28 
     200    643.50177    166958.25    72.836744    72.836745    36.339271          120   -10186.236   -9570.4751   -89073.698   -621.71232   -1939.0056   -1192.2105    72.836744    63.078472    36.339271   -36276.803   -310796.31 
     210    652.04321    166751.54    72.806672    72.806673    36.324267          120   -5493.1431   -4858.1321   -65653.175   -938.70793   -1677.1752   -898.75058    72.806672    63.052428    36.324267   -25334.817   -310859.86 
     220    630.06455    166548.83    72.777158    72.777158    36.309542          120   -1884.5836   -908.68872   -46450.279   -892.35974   -1233.1061   -2015.7963    72.777158    63.026868    36.309542   -16414.517    -310861.9 
     230    607.97954    166354.57    72.748852    72.748853     36.29542          120   -1537.8603   -945.48318   -38556.582   -648.21655   -864.86909   -2675.4335    72.748852    63.002355     36.29542   -13679.975   -310862.01 
     240    606.36337    166169.78    72.721905    72.721905    36.281975          120   -3816.0122   -3106.8075   -42295.021   -419.34312   -1617.1889   -2583.6108    72.721905    62.979017    36.281975   -16405.947   -310899.88 
     250    619.60792    165992.45    72.696027    72.696027    36.269065          120   -6184.0205   -6106.2818   -55651.261    153.10634   -1594.0226   -2313.4575    72.696027    62.956606    36.269065   -22647.188    -310969.1 
     260    618.12599    165818.98    72.670695    72.670695    36.256426          120   -7072.5891   -8202.5273   -70187.111    473.11896   -1335.4656   -2748.9104    72.670695    62.934668    36.256426   -28487.409   -311011.79 
     270     595.4798    165646.33    72.645463    72.645464    36.243838          120   -6173.3057   -7561.0597    -78132.92    -64.06442   -1211.7561   -1819.3204    72.645463    62.912817    36.243838   -30622.428   -311012.83 
     280    574.37187    165473.56    72.620199    72.620199    36.231233          120    -4247.353    -4706.326   -77514.456    -218.8825   -840.25765   -803.59563    72.620199    62.890937    36.231233   -28822.712   -311014.29 
     290    573.60558    165301.94    72.595083    72.595084    36.218703          120   -975.90262   -287.92307    -68865.39   -20.515509   -1013.4581   -841.93073    72.595083    62.869187    36.218703   -23376.405   -311053.72 
     300    573.49649    165134.39    72.570548    72.570548    36.206461          120    3173.1471    3848.3022   -56449.772   -41.293393   -1154.1693   -760.56913    72.570548    62.847939    36.206461   -16476.108   -311092.92 
     310    564.47187    164974.29    72.547087    72.547088    36.194757          120    5792.1854    6404.5167   -43071.801    207.74597   -891.37561   -940.77013    72.547087    62.827621    36.194757     -10291.7   -311114.23 
     320    554.75468    164824.17    72.525076    72.525076    36.183775          120    6748.5576     7423.077    -34658.43     631.9103   -1289.1373   -1437.2117    72.525076    62.808559    36.183775   -6828.9319   -311132.74 
     330    548.29861    164684.85    72.504636    72.504636    36.173577          120    5805.7644    6527.0007    -34417.25    248.88464   -1243.0338   -1458.2575    72.504636    62.790857    36.173577    -7361.495   -311157.14 
     340    543.53048    164555.05    72.485582    72.485582    36.164071          120    4407.7325    5629.4878   -41693.162    175.74579   -688.90198   -1473.7193    72.485582    62.774356    36.164071   -10551.981   -311184.14 
     350    537.64474    164432.16    72.467534    72.467534    36.155066          120    3937.3903    4254.3871   -51925.733    489.02275     287.5964   -891.73563    72.467534    62.758726    36.155066   -14577.985   -311208.85 
     360    521.43021    164313.47    72.450094    72.450094    36.146365          120    4399.4502    5196.8928   -59266.397   -189.74611    66.353206   -997.43398    72.450094    62.743622    36.146365   -16556.685   -311212.16 
     370    511.95931    164197.49    72.433043    72.433043    36.137858          120    5678.7969     7382.537    -60025.01   -529.77527   -1164.9019   -1245.4207    72.433043    62.728856    36.137858   -15654.559   -311227.84 
     380    508.71282    164084.32    72.416398    72.416399    36.129554          120    7910.3647    10021.447   -55080.427   -940.00086    -1222.229   -1314.6611    72.416398    62.714441    36.129554   -12382.871   -311254.52 
     390    504.46979     163975.2    72.400341    72.400342    36.121543          120    10480.414    11393.572   -47153.508   -1391.8954   -1170.9487   -1669.6826    72.400341    62.700535    36.121543   -8426.5077   -311278.63 
     400    493.50377    163871.71    72.385108    72.385108    36.113943          120    13352.553    13400.296   -38619.988   -389.10699   -1434.7996   -1299.6647    72.385108    62.687343    36.113943   -3955.7133   -311288.42 
     410    489.15261    163775.45    72.370931    72.370931     36.10687          120    13701.728    14917.088   -32541.539    45.064203   -1316.4097   -1885.9825    72.370931    62.675065     36.10687   -1307.5745   -311310.86 
     420    486.93508    163686.94    72.357892    72.357893    36.100365          120    13234.163    14518.206   -32328.109    297.25012   -454.78616   -1619.3969    72.357892    62.663773    36.100365   -1525.2466   -311336.73 
     430    479.07083     163605.3     72.34586    72.345861    36.094361          120    12522.274     12877.43   -36100.983    345.91611   -935.21781   -332.72076     72.34586    62.653353    36.094361    -3567.093   -311351.03 
     440    474.14624    163528.81    72.334583    72.334584    36.088735          120    12276.327    11649.561   -41177.727     176.0562   -1116.6581   -367.03969    72.334583    62.643587    36.088735   -5750.6127   -311369.67 
     450    465.38146    163455.82     72.32382    72.323821    36.083366          120    12493.128     11890.57   -45513.079     474.1869    -1018.631   -810.49367     72.32382    62.634266    36.083366   -7043.1269   -311381.59 
     460    456.28522    163385.31    72.313419     72.31342    36.078176          120    13233.411    13298.595   -47114.725    770.10579   -369.57819   -851.57791    72.313419    62.625259    36.078176   -6860.9064   -311391.65 
     470    448.44301    163317.08    72.303352    72.303352    36.073154          120    15112.406    15041.855     -45279.8    574.64681    349.14194   -845.02705    72.303352     62.61654    36.073154   -5041.8462   -311402.77 
     480    447.26178    163251.74    72.293707    72.293708    36.068342          120    16372.415    15947.124    -40931.64    349.74585    53.817263    398.26189    72.293707    62.608188    36.068342   -2870.7001   -311425.84 
     490    440.37809    163190.08    72.284604    72.284605      36.0638          120    16496.669    17049.235    -35625.19    431.86191   -2.1133344    677.07438    72.284604    62.600304      36.0638   -693.09531   -311437.74 
     500    434.03311    163132.87    72.276157    72.276158    36.059586          120     18112.97    18460.694   -31679.359    303.96228    521.90492    723.89779    72.276157    62.592989    36.059586    1631.4351   -311450.01 
     510    430.37859    163080.78    72.268464    72.268465    36.055748          120    18578.696    18581.347   -31111.234   -296.11321    781.00323    780.65077    72.268464    62.586327    36.055748    2016.2699   -311466.32 
     520    423.59255     163033.6    72.261494    72.261495     36.05227          120    18345.193    17260.465   -32224.683   -283.20529    542.86543    87.093196    72.261494     62.58029     36.05227    1126.9917   -311476.75 
     530    416.59491    162990.48    72.255122    72.255123    36.049091          120    18161.576    16888.188   -35176.253   -298.27615      355.107    97.300751    72.255122    62.574772    36.049091   -42.162975   -311485.98 
     540    410.21222    162950.47    72.249209     72.24921    36.046141          120    18341.759    17705.787    -38813.32    -155.8383   -188.82677   -375.31032    72.249209    62.569651    36.046141    -921.9247   -311495.56 
     550    408.19696    162912.87    72.243652    72.243653    36.043369          120    18483.629    18917.171   -40098.376    56.928923   -117.20996   -550.40343    72.243652    62.564839    36.043369   -899.19227   -311513.65 
     560    401.78164    162877.46    72.238417    72.238418    36.040757          120    17962.363    19135.304   -38464.018    222.32568   -10.729071   -66.917062    72.238417    62.560305    36.040757   -455.45002   -311522.58 
     570     396.5774    162844.27     72.23351    72.233511    36.038309          120    19104.507    18892.712   -36099.059     335.1262    202.74182    514.63521     72.23351    62.556055    36.038309    632.71979   -311533.38 
     580    393.39468    162813.71    72.228991    72.228992    36.036054          120    20770.934    20131.154   -33252.432    474.22953     390.1703    813.94616    72.228991    62.552142    36.036054    2549.8857   -311547.45 
     590    387.44694     162786.5    72.224967    72.224968    36.034046          120    20730.524    20956.601   -30096.491    90.311023    276.45584   -225.49262    72.224967    62.548657    36.034046    3863.5445   -311555.29 
     600     383.4805    162763.01    72.221494    72.221495    36.032314          120    21045.695    20447.465   -29687.876   -31.652604    48.776907   -21.679612    72.221494    62.545649    36.032314    3935.0948   -311566.37 
     610    380.17722    162743.09    72.218547    72.218548    36.030843          120    21851.908    20770.028    -31347.79   -5.6646878   -528.12958   -632.13424    72.218547    62.543097    36.030843    3758.0484    -311578.6 
     620    379.73022    162726.33    72.216069    72.216069    36.029607          120     21630.87    21026.463   -34592.835   -448.25254    19.598539   -1120.5136    72.216069    62.540951    36.029607    2688.1663   -311596.38 
     630    378.03233    162712.05    72.213955    72.213956    36.028552          120    21938.909    20546.228    -36441.13   -129.27539    79.242037   -765.20364    72.213955     62.53912    36.028552    2014.6692   -311611.63 
     640    372.82611    162699.73    72.212133    72.212133    36.027643          120    22458.182    20412.959   -36762.566    348.24982   -260.95597   -1460.9447    72.212133    62.537542    36.027643    2036.1916   -311619.62 
     650     363.2629    162689.28    72.210587    72.210587    36.026872          120    22548.975     22046.93   -34991.214    259.81086   -741.27529   -1642.5341    72.210587    62.536203    36.026872    3201.5634    -311618.3 
     660     361.7286    162681.09    72.209375    72.209376    36.026267          120    23208.771    22255.704   -32970.005    680.10092   -1140.6987    -1394.329    72.209375    62.535154    36.026267    4164.8234   -311632.46 
     670    361.33826    162675.57    72.208557    72.208558    36.025859          120    23499.781    22191.337   -30406.633      569.907   -356.89849   -1056.2083    72.208557    62.534446    36.025859    5094.8282   -311647.87 
     680    355.90444    162672.96    72.208171    72.208172    36.025667          120    22287.277      22061.5   -29825.709    184.39035   -55.176579   -619.91955    72.208171    62.534111    36.025667    4841.0226    -311653.1 
     690    350.85073    162672.98    72.208175    72.208175    36.025668          120    21575.527    21721.638   -31528.952   -32.629494   -356.18511   -555.41467    72.208175    62.534114    36.025668    3922.7378   -311658.79 
     700    346.38631    162675.03    72.208479    72.208479     36.02582          120      22104.3     20675.75   -33093.825   -148.15466   -785.07162   -436.18778    72.208479    62.534378     36.02582    3228.7418   -311664.95 
     710    343.85355    162678.64    72.209012    72.209013    36.026086          120    22031.577    20288.685   -34163.631    4.4683471   -1270.4827   -167.68827    72.209012     62.53484    36.026086     2718.877   -311674.57 
     720    343.10142    162683.46    72.209726    72.209726    36.026442          120    21820.161     20315.79   -35176.987   -123.33836   -1083.3953   -1086.4369    72.209726    62.535458    36.026442    2319.6545   -311686.97 
     730    339.65681    162689.25    72.210582    72.210582    36.026869          120    21790.283    20410.456   -35630.179    336.97261   -1169.8122   -2133.5729    72.210582    62.536199    36.026869    2190.1864   -311693.96 
     740    334.23805    162695.86     72.21156     72.21156    36.027357          120    21271.547    20592.076   -35336.729    363.39545   -1278.4844    -1864.262     72.21156    62.537046    36.027357    2175.6313   -311696.72 
     750    327.21255    162703.29     72.21266     72.21266    36.027906          120    21676.279    20408.707   -32972.234    60.495022   -920.98143   -1658.2607     72.21266    62.537998    36.027906     3037.584   -311696.59 
     760     327.4078    162711.88    72.213931    72.213931     36.02854          120    21612.917    20888.006   -31894.048    125.52979   -1083.3124   -1316.6806    72.213931    62.539099     36.02854    3535.6251   -311709.23 
     770    324.76966    162721.85    72.215406    72.215406    36.029276          120    22462.674    20744.759   -31734.557    43.035405   -1176.7992   -1558.1155    72.215406    62.540377    36.029276     3824.292   -311715.92 
     780    324.71472    162733.29    72.217098    72.217099     36.03012          120    22395.698    21217.729   -31779.201    232.54544   -865.32221   -1147.1624    72.217098    62.541842     36.03012     3944.742   -311727.77 
     790    317.80473    162746.18    72.219004    72.219004    36.031071          120     22489.46    21320.867   -32762.811    88.849831   -912.63792   -1193.9276    72.219004    62.543493    36.031071    3682.5055   -311725.58 
     800    314.70088    162760.29    72.221092    72.221092    36.032113          120    22344.268    20898.215   -34057.097    326.44904    -1216.706   -1080.9349    72.221092    62.545301    36.032113    3061.7956   -311730.52 
     810    314.77971    162775.27    72.223307    72.223307    36.033218          120    21333.799    20789.376   -35634.119    589.55121   -1077.2305   -822.63965    72.223307    62.547219    36.033218    2163.0187   -311741.39 
     820    315.30739    162790.64    72.225581    72.225581    36.034352          120    20437.254    20874.056   -36071.368    591.48904   -1002.8322   -1029.1914    72.225581    62.549188    36.034352    1746.6471    -311752.7 
     830     311.5214    162806.15    72.227874    72.227875    36.035497          120    20095.001     19776.59   -36060.166    889.61426   -798.94559   -1101.8553    72.227874    62.551175    36.035497    1270.4752   -311755.29 
     840    306.61897     162821.6    72.230158    72.230159    36.036636          120    20254.554    19721.103   -34654.248    886.36508   -536.35898   -1382.0473    72.230158    62.553153    36.036636     1773.803    -311755.4 
     850    305.40271    162837.22    72.232469    72.232469    36.037789          120    21142.128    20391.337   -33865.274    1061.3146   -370.94937   -1505.4645    72.232469    62.555153    36.037789    2556.0635      -311762 
     860    303.50353    162853.42    72.234863    72.234864    36.038984          120    21728.306    20167.864   -33223.563    831.11739   -434.07561   -1444.1974    72.234863    62.557227    36.038984     2890.869   -311766.83 
     870    301.19764    162870.33    72.237363    72.237364    36.040231          120    21194.467    20359.934   -33448.843    540.72704   -1207.5384   -339.25641    72.237363    62.559392    36.040231    2701.8527   -311770.84 
     880    300.91784     162887.8    72.239946    72.239947     36.04152          120     20732.14    19938.494   -35163.225    39.372831   -970.68829    213.37547    72.239946    62.561629     36.04152    1835.8032   -311778.82 
     890    298.43964    162905.38    72.242545    72.242546    36.042816          120      20123.4    18908.394   -36326.532    193.00069   -609.86631     381.1037    72.242545     62.56388    36.042816     901.7541   -311782.43 
     900    296.52079    162922.62    72.245093    72.245094    36.044087          120    19734.612    17978.611   -37416.431    450.48365   -565.88904    40.824178    72.245093    62.566086    36.044087    98.930858   -311786.29 
     910    293.38006    162939.13    72.247533    72.247534    36.045305          120    19529.806    17584.805   -37121.688    685.24987   -851.93935    112.88404    72.247533      62.5682    36.045305   -2.3589567   -311787.43 
     920    292.52463    162954.89    72.249863    72.249864    36.046467          120    19863.492    17868.972   -36266.652    827.07529   -1179.4029    206.96629    72.249863    62.570218    36.046467    488.60411    -311792.8 
     930    293.84289    162970.15    72.252119    72.252119    36.047593          120    19846.538     18263.86   -36126.018    490.08998   -848.08473   -195.48366    72.252119    62.572171    36.047593    661.45991   -311802.45 
     940    289.47825    162985.07    72.254323    72.254323    36.048692          120    19164.965    18427.583   -34768.369    706.65694   -627.16835   -428.32275    72.254323     62.57408    36.048692     941.3931    -311800.5 
     950    288.30362    162999.76    72.256493    72.256494    36.049775          120    18420.706    18311.316   -34724.593    1305.7571   -557.97336   -754.56606    72.256493    62.575959    36.049775     669.1433    -311804.2 
     960    287.11471    163014.12    72.258615    72.258616    36.050834          120    18245.173    18221.739   -35412.824     680.3751    106.67094   -387.26867    72.258615    62.577797    36.050834    351.36268   -311807.12 
     970    286.56375    163028.02     72.26067     72.26067    36.051859          120    18709.978    18201.864   -36305.914    874.17861   -326.55943   -35.601584     72.26067    62.579576    36.051859     201.9761   -311811.73 
     980    286.65954    163041.41    72.262648    72.262649    36.052846          120    18946.026    17905.014   -36968.633    941.19005   -436.94537    -8.302609    72.262648     62.58129    36.052846   -39.197746   -311816.55 
     990      287.183    163054.16    72.264532    72.264532    36.053786          120     18660.15    17255.703   -37409.863    777.81496   -967.97939   -42.708133    72.264532    62.582921    36.053786   -498.00322   -311822.87 
    1000    283.89515     163066.1    72.266296    72.266296    36.054666          120     18099.92    17434.798   -37473.482    349.16577   -1412.8329   -108.20702    72.266296    62.584449    36.054666   -646.25463   -311820.63 
Loop time of 301.837 on 1 procs for 1000 steps with 14848 atoms

Performance: 0.286 ns/day, 83.844 hours/ns, 3.313 timesteps/s
100.0% CPU use with 1 MPI tasks x no OpenMP threads

MPI task timing breakdown:
Section |  min time  |  avg time  |  max time  |%varavg| %total
---------------------------------------------------------------
Pair    | 238.55     | 238.55     | 238.55     |   0.0 | 79.03
Bond    | 9.8944e-05 | 9.8944e-05 | 9.8944e-05 |   0.0 |  0.00
Kspace  | 10.748     | 10.748     | 10.748     |   0.0 |  3.56
Neigh   | 45.979     | 45.979     | 45.979     |   0.0 | 15.23
Comm    | 0.37103    | 0.37103    | 0.37103    |   0.0 |  0.12
Output  | 0.010454   | 0.010454   | 0.010454   |   0.0 |  0.00
Modify  | 6.0846     | 6.0846     | 6.0846     |   0.0 |  2.02
Other   |            | 0.09223    |            |       |  0.03

Nlocal:    14848 ave 14848 max 14848 min
Histogram: 1 0 0 0 0 0 0 0 0 0
Nghost:    46847 ave 46847 max 46847 min
Histogram: 1 0 0 0 0 0 0 0 0 0
Neighs:    1.00934e+07 ave 1.00934e+07 max 1.00934e+07 min
Histogram: 1 0 0 0 0 0 0 0 0 0

Total # of neighbors = 10093410
Ave neighs/atom = 679.782
Ave special neighs/atom = 0
Neighbor list builds = 167
Dangerous builds = 0
PPPM initialization ...
  using 12-bit tables for long-range coulomb (../kspace.cpp:321)
  G vector (1/distance) = 0.202621
  grid = 36 50 24
  stencil order = 5
  estimated absolute RMS force accuracy = 0.000996654
  estimated relative force accuracy = 6.92138e-05
  using double precision FFTs
  3d grid and FFT values/proc = 65395 43200
Setting up Verlet run ...
  Unit style    : metal
  Current step  : 0
  Time step     : 0.001
Per MPI rank memory allocation (min/avg/max) = 151.5 | 151.5 | 151.5 Mbytes
Step Temp Volume Cella Cellb Cellc CellGamma Pxx Pyy Pzz Pxy Pxz Pyz Lx Ly Lz Press PotEng 
       0    283.89515     163066.1    72.266296    72.266296    36.054666          120    18112.296    17447.443   -37466.774    349.70427   -1412.8875   -108.17868    72.266296    62.584449    36.054666   -635.67844   -311820.45 
  100000    287.79056    163810.56    72.376102    72.376103     36.10945          120    20685.946    19536.329   -35704.981    1196.7633   -793.21385   -664.95032    72.376102    62.679544     36.10945    1505.7647   -311908.09 
Loop time of 28565 on 1 procs for 100000 steps with 14848 atoms

Performance: 0.302 ns/day, 79.347 hours/ns, 3.501 timesteps/s
100.0% CPU use with 1 MPI tasks x no OpenMP threads

MPI task timing breakdown:
Section |  min time  |  avg time  |  max time  |%varavg| %total
---------------------------------------------------------------
Pair    | 23247      | 23247      | 23247      |   0.0 | 81.38
Bond    | 0.012774   | 0.012774   | 0.012774   |   0.0 |  0.00
Kspace  | 1098.3     | 1098.3     | 1098.3     |   0.0 |  3.85
Neigh   | 3556.2     | 3556.2     | 3556.2     |   0.0 | 12.45
Comm    | 39.435     | 39.435     | 39.435     |   0.0 |  0.14
Output  | 9.8944e-05 | 9.8944e-05 | 9.8944e-05 |   0.0 |  0.00
Modify  | 614.32     | 614.32     | 614.32     |   0.0 |  2.15
Other   |            | 9.884      |            |       |  0.03

Nlocal:    14848 ave 14848 max 14848 min
Histogram: 1 0 0 0 0 0 0 0 0 0
Nghost:    46757 ave 46757 max 46757 min
Histogram: 1 0 0 0 0 0 0 0 0 0
Neighs:    1.00454e+07 ave 1.00454e+07 max 1.00454e+07 min
Histogram: 1 0 0 0 0 0 0 0 0 0

Total # of neighbors = 10045368
Ave neighs/atom = 676.547
Ave special neighs/atom = 0
Neighbor list builds = 12894
Dangerous builds = 0
 
All done!
Total wall time: 8:01:08
