LAMMPS (16 Mar 2018)
Reading data file ...
  triclinic box = (0 0 0) to (9.208 7.97436 18.376) with tilt (-4.604 0 0)
  1 by 1 by 1 MPI processor grid
  reading atoms ...
  116 atoms
Finding 1-2 1-3 1-4 neighbors ...
  special bond factors lj:   0          0          0         
  special bond factors coul: 0          0          0         
  0 = max # of 1-2 neighbors
  0 = max # of 1-3 neighbors
  0 = max # of 1-4 neighbors
  1 = max # of special neighbors
Replicating atoms ...
  triclinic box = (0 0 0) to (73.664 63.7949 36.752) with tilt (-36.832 0 0)
  1 by 1 by 1 MPI processor grid
  14848 atoms
Finding 1-2 1-3 1-4 neighbors ...
  special bond factors lj:   0          0          0         
  special bond factors coul: 0          0          0         
  0 = max # of 1-2 neighbors
  0 = max # of 1-3 neighbors
  0 = max # of 1-4 neighbors
  1 = max # of special neighbors
  Time spent = 0.00265002 secs
PPPM initialization ...
WARNING: System is not charge neutral, net charge = -0.2048 (../kspace.cpp:302)
  using 12-bit tables for long-range coulomb (../kspace.cpp:321)
  G vector (1/distance) = 0.201681
  grid = 36 50 24
  stencil order = 5
  estimated absolute RMS force accuracy = 0.00105653
  estimated relative force accuracy = 7.33721e-05
  using double precision FFTs
  3d grid and FFT values/proc = 65395 43200
Neighbor list info ...
  update every 1 steps, delay 0 steps, check yes
  max neighbors/atom: 2000, page size: 100000
  master list distance cutoff = 15.3
  ghost atom cutoff = 15.3
  binsize = 7.65, bins = 15 9 5
  3 neighbor lists, perpetual/occasional/extra = 3 0 0
  (1) pair morse, perpetual
      attributes: half, newton on
      pair build: half/bin/newton/tri
      stencil: half/bin/3d/newton/tri
      bin: standard
  (2) pair buck, perpetual, copy from (1)
      attributes: half, newton on
      pair build: copy
      stencil: none
      bin: none
  (3) pair lj/cut/coul/long, perpetual, copy from (1)
      attributes: half, newton on
      pair build: copy
      stencil: none
      bin: none
Setting up Verlet run ...
  Unit style    : metal
  Current step  : 0
  Time step     : 0.001
Per MPI rank memory allocation (min/avg/max) = 145.7 | 145.7 | 145.7 Mbytes
Step Temp Volume Cella Cellb Cellc CellGamma Pxx Pyy Pzz Pxy Pxz Pyz Lx Ly Lz Press PotEng 
       0          300    172711.88       73.664    73.664001       36.752          120   -207935.56   -207983.96   -278964.49    24.921216   -7.6308551     10.20218       73.664    63.794896       36.752      -231628   -309191.56 
      10    360.01667    172644.78    73.654459     73.65446     36.74724          120   -209393.61   -209480.64   -256547.68    118.52356   -23.860008   -175.71918    73.654459    63.786634     36.74724   -225140.64   -309337.86 
      20    629.77826    172447.81    73.626438    73.626439     36.73326          120   -205932.93   -205564.57   -196985.88    32.875948   -262.74329   -387.91409    73.626438    63.762366     36.73326    -202827.8   -309895.02 
      30    643.60651    172137.04    73.582184    73.582185    36.711181          120   -177704.67   -177310.19   -117606.87   -205.39556   -832.43568   -459.11362    73.582184    63.724041    36.711181   -157540.58    -309979.3 
      40    426.15137    171745.66    73.526374    73.526375    36.683337          120   -131431.84   -131653.49   -37772.779   -664.64598   -1147.9282   -492.01638    73.526374    63.675709    36.683337   -100286.04    -309602.7 
      50    513.60781    171317.36    73.465203    73.465204    36.652818          120   -90554.067   -91192.846    -5910.236   -683.59928   -1185.5727   -622.95426    73.465203    63.622733    36.652818   -62552.383   -309795.96 
      60    807.64863    170887.04    73.403642    73.403642    36.622104          120   -67294.169   -67150.433   -44461.907   -688.92358   -2045.1039   -455.03671    73.403642    63.569419    36.622104   -59635.503   -310391.07 
      70    978.99284    170469.88    73.343863    73.343864    36.592279          120   -52825.722   -52672.968   -107699.51   -1678.3464   -2433.7976   -525.48251    73.343863    63.517649    36.592279   -71066.066   -310779.67 
      80    841.94831    170069.36    73.286378    73.286378    36.563599          120   -44538.436   -45463.066   -153770.05   -1778.4558   -2850.1723    67.227747    73.286378    63.467866    36.563599   -81257.185   -310583.52 
      90    577.87653    169686.11    73.231285    73.231286    36.536113          120   -39421.882   -40169.907   -168131.42   -2014.4487   -3305.6191   -445.38469    73.231285    63.420154    36.536113   -82574.402   -310130.09 
     100    593.56592     169322.5    73.178941    73.178941    36.509997          120   -24080.872   -24292.869   -147790.98   -1761.6698   -3051.5391   -864.31558    73.178941    63.374822    36.509997   -65388.239   -310202.24 
     110     764.2274    168985.95    73.130424    73.130424    36.485791          120   -4363.6576    -4715.304   -105523.73    -1841.352   -1968.4907   -1043.7615    73.130424    63.332805    36.485791   -38200.898   -310577.57 
     120    773.24658    168684.67    73.086937    73.086938    36.464095          120    6606.5369    6556.6205   -55668.799   -1825.6107   -1398.3213   -1482.2982    73.086937    63.295145    36.464095   -14168.547    -310647.1 
     130    671.42174    168422.22    73.049014    73.049014    36.445175          120     5519.223    6600.3183   -16595.439   -1711.6912   -1315.6003   -1465.6398    73.049014    63.262302    36.445175   -1491.9658   -310497.61 
     140    622.32282    168195.69    73.016249     73.01625    36.428828          120    890.90564    692.14888     -3924.26   -1214.5763   -1100.2768   -1319.8985    73.016249    63.233927    36.428828   -780.40181   -310440.77 
     150    670.98506       167997    72.987485    72.987486    36.414477          120   -7114.4863   -6050.4879   -25572.636   -1879.0398   -836.86365   -673.34375    72.987485    63.209017    36.414477   -12912.537   -310572.56 
     160    732.41087    167813.83     72.96095     72.96095    36.401238          120   -17343.953     -15851.4   -60707.926   -1680.8183   -1211.3453   -766.54555     72.96095    63.186037    36.401238   -31301.093   -310738.35 
     170    718.39626    167633.27    72.934772    72.934773    36.388178          120   -22232.186   -20167.467   -91036.212   -811.76429   -2094.5057   -1072.7266    72.934772    63.163366    36.388178   -44478.622   -310763.99 
     180    643.80128    167446.74    72.907711    72.907711    36.374677          120   -19692.785   -17626.254    -108873.1   -766.55479    -2407.773   -1297.9532    72.907711     63.13993    36.374677   -48730.712   -310670.98 
     190    616.55849    167251.49    72.879361    72.879361    36.360533          120   -15074.956   -13701.848   -108243.25   -120.79552     -1940.77   -1369.6896    72.879361    63.115379    36.360533    -45673.35   -310663.85 
     200    651.86212    167049.26    72.849976    72.849977    36.345872          120   -10690.551   -9997.8779   -89646.393   -738.50386   -1981.5803   -1267.1761    72.849976    63.089931    36.345872   -36778.274   -310776.36 
     210    660.85467    166844.92     72.82026    72.820261    36.331046          120    -5890.946   -5325.6967   -66402.937   -1050.1973   -1633.9104   -956.49914     72.82026    63.064196    36.331046   -25873.193   -310840.28 
     220    640.29099    166644.23    72.791051    72.791051    36.316473          120   -2369.8002   -1331.5386   -47313.619   -992.80803   -1169.6659   -2112.6471    72.791051      63.0389    36.316473   -17004.986   -310844.78 
     230    617.56488    166451.44     72.76297     72.76297    36.302463          120   -2062.8207   -1310.3284   -39228.454   -707.85639    -808.7302   -2879.9476     72.76297    63.014581    36.302463   -14200.534   -310843.24 
     240    616.12255    166267.57    72.736167    72.736167    36.289091          120   -4287.4633   -3366.0543   -42722.353   -423.61988   -1668.8074   -2724.8634    72.736167    62.991369    36.289091   -16791.957   -310881.44 
     250    628.98452    166090.75    72.710374    72.710375    36.276223          120   -6684.1326   -6453.1405   -55882.133    76.549404   -1785.8344   -2589.7384    72.710374    62.969032    36.276223   -23006.469   -310949.81 
     260    627.35065    165917.54    72.685089    72.685089    36.263607          120   -7701.2608   -8704.0468   -70555.263    410.96288   -1450.0959   -3055.6265    72.685089    62.947134    36.263607   -28986.857   -310991.74 
     270    604.27051    165744.92    72.659874    72.659874    36.251027          120   -6719.9268   -8150.2111   -78630.199   -97.238349   -1350.5703   -2040.8492    72.659874    62.925297    36.251027   -31166.779   -310991.76 
     280    582.57926    165572.01    72.634598    72.634598    36.238417          120   -4927.3416    -5174.666   -78341.531   -204.00485   -901.95908   -1179.6271    72.634598    62.903407    36.238417   -29481.179   -310992.11 
     290     583.1403       165400    72.609436    72.609437    36.225863          120   -1790.0535   -558.41745   -69833.854    125.75752   -982.05271   -1326.1901    72.609436    62.881617    36.225863   -24060.775   -311033.61 
     300    584.09354    165231.76    72.584809     72.58481    36.213577          120    2483.8681    3295.9934   -57520.871    56.106123   -1108.5329   -1287.2497    72.584809    62.860289    36.213577   -17247.003   -311074.68 
     310    575.54229    165070.57    72.561198    72.561198    36.201797          120    5215.8019    5751.7372   -44368.952    288.93817   -654.85613   -1547.2402    72.561198    62.839841    36.201797   -11133.804   -311096.95 
     320    564.38503    164918.91     72.53897     72.53897    36.190707          120    6294.8068    6916.1786   -35662.168    728.81515   -1090.2429   -1860.3513     72.53897    62.820591    36.190707   -7483.7275   -311112.58 
     330    558.35531    164777.72    72.518262    72.518263    36.180375          120    5543.7431    6013.7554   -35160.031    170.64642   -825.79485   -1868.3368    72.518262    62.802658    36.180375   -7867.5108   -311137.26 
     340    554.33384    164645.85    72.498912    72.498912    36.170721          120    3679.8029     5227.168   -42265.923   -67.207529    -431.6832    -1841.598    72.498912      62.7859    36.170721   -11119.651   -311166.08 
     350    546.84728    164520.79    72.480552    72.480553    36.161561          120    3127.1855    3725.4522   -52494.017    244.17027    440.55256   -1474.2386    72.480552        62.77    36.161561   -15213.793    -311187.7 
     360    530.81891    164399.89    72.462793    72.462794    36.152701          120    3741.9509    4414.8945   -60056.329   -140.43634    184.17614   -1604.6015    72.462793     62.75462    36.152701   -17299.828   -311191.14 
     370    520.74145    164281.64    72.445415    72.445416    36.144031          120    5025.8226    6343.1609   -61189.283   -467.08369    -1121.382   -1744.4749    72.445415    62.739571    36.144031   -16606.766   -311205.78 
     380    516.93851    164166.08    72.428425    72.428425    36.135554          120    6983.7282    9201.9228   -56240.456   -1222.5386   -934.01314   -1814.0023    72.428425    62.724856    36.135554   -13351.602   -311231.32 
     390    513.33777    164054.39    72.411996    72.411996    36.127357          120    9336.7108    10595.814   -48321.254    -1592.345   -1109.4332   -1982.1378    72.411996    62.710628    36.127357   -9462.9097   -311256.61 
     400    501.91817    163948.12    72.396357    72.396357    36.119555          120    12383.225    12721.854   -39454.826   -501.57774    -1427.047   -1331.0005    72.396357    62.697085    36.119555   -4783.2488   -311265.51 
     410    498.28503    163848.89    72.381748    72.381748    36.112266          120    12756.022    14480.484   -33559.446   -82.694739   -1042.3943   -1967.9493    72.381748    62.684433    36.112266   -2107.6465   -311288.97 
     420      496.178    163757.27    72.368253    72.368253    36.105534          120    12269.613    14078.134   -32977.363    442.92268   -307.42947    -1955.385    72.368253    62.672746    36.105534   -2209.8721   -311314.87 
     430    488.29371    163672.41     72.35575    72.355751    36.099296          120    11556.156    12485.712   -36593.823     625.3345    -823.8927   -912.03062     72.35575    62.661919    36.099296   -4183.9851   -311328.91 
     440    482.79115    163592.71    72.344004    72.344005    36.093436          120     11633.09    11702.505   -41714.874    194.44383   -980.88073   -811.12945    72.344004    62.651746    36.093436   -6126.4264    -311347.1 
     450    474.29771    163516.65    72.332791    72.332792    36.087841          120    12077.118    11924.444   -46245.016    355.70083   -632.74537   -1723.3677    72.332791    62.642036    36.087841   -7414.4843    -311358.8 
     460    465.74286    163443.24    72.321965    72.321966     36.08244          120    12967.214    13507.886    -47524.53    664.99702    104.22741   -1382.0736    72.321965     62.63266     36.08244   -7016.4767   -311370.14 
     470    459.08463    163372.33    72.311505    72.311505    36.077221          120    14285.458    14929.922   -45809.124    555.78003    920.57214   -1389.5629    72.311505    62.623601    36.077221   -5531.2483   -311383.68 
     480    455.71112    163304.36    72.301475    72.301475    36.072217          120    15744.852    15587.721   -41449.875    288.49954    679.25215    75.875431    72.301475    62.614915    36.072217   -3372.4341   -311402.54 
     490    450.36665    163240.07    72.291986    72.291986    36.067483          120    15976.972    16841.738   -36064.555    56.294827     646.1183    446.63189    72.291986    62.606697    36.067483   -1081.9482   -311417.07 
     500     443.1025    163180.23    72.283151    72.283152    36.063075          120    17348.697    18049.812   -31978.972   -200.53219    1230.3499    325.88863    72.283151    62.599046    36.063075    1139.8456   -311427.83 
     510    440.35976    163125.45    72.275061    72.275062    36.059039          120    17861.744    18067.114   -31154.545   -661.43444    1608.3209    665.41841    72.275061     62.59204    36.059039    1591.4376   -311445.93 
     520    432.75692    163075.48    72.267681    72.267682    36.055357          120    17469.248    17007.256   -33742.865   -505.18926    1438.2482    94.860206    72.267681    62.585648    36.055357    244.54648   -311454.58 
     530    426.25841    163029.33    72.260863    72.260863    36.051955          120    17405.483    16122.798   -36638.965   -475.43491    894.30629   -215.35167    72.260863    62.579744    36.051955   -1036.8946   -311465.22 
     540    424.01471    162986.02    72.254463    72.254464    36.048762          120    17566.035    16691.381   -39704.407    3.1551174    931.28702   -916.75523    72.254463    62.574201    36.048762   -1815.6638   -311482.88 
     550    419.29766    162944.92    72.248389    72.248389    36.045732          120    18236.626    17286.552   -40547.378    142.11983    736.12225   -1102.8363    72.248389    62.568941    36.045732   -1674.7334   -311495.61 
     560    414.20408    162905.86    72.242616    72.242616    36.042852          120    17853.635    18266.103   -39043.281     183.1173    759.89879   -393.21635    72.242616    62.563941    36.042852   -974.51422   -311507.19 
     570    410.68225    162869.05    72.237174    72.237174    36.040136          120    19194.114    19289.434   -36354.326      81.3414    889.75924    81.621286    72.237174    62.559228    36.040136    709.74095    -311521.9 
     580    405.45289    162835.12    72.232157    72.232158    36.037634          120    21046.929    20252.523   -32957.046   -182.10023    1119.8511    19.417696    72.232157    62.554884    36.037634    2780.8022   -311532.45 
     590    399.19718    162804.81    72.227676    72.227677    36.035398          120    20842.414    21253.196    -30835.22    -535.3296    1211.2836   -253.82112    72.227676    62.551003    36.035398    3753.4634   -311539.89 
     600    393.46478    162778.34    72.223761    72.223762    36.033445          120    20523.887    21168.082   -31095.287   -204.00041    1399.6063    60.154991    72.223761    62.547612    36.033445    3532.2271   -311547.81 
     610    389.22389    162755.34    72.220359    72.220359    36.031747          120    20856.229    20860.194   -33147.228   -210.21722     1876.685   -533.63285    72.220359    62.544666    36.031747    2856.3983   -311558.56 
     620    388.84608    162735.22    72.217383    72.217383    36.030263          120    20838.224    21145.876   -35659.615    -283.5517    1942.1259    -567.7379    72.217383    62.542089    36.030263    2108.1616   -311576.34 
     630    389.02549    162717.41    72.214749     72.21475    36.028948          120    21041.614     20357.06   -37147.375   -181.07818    1506.7485   -530.47765    72.214749    62.539808    36.028948    1417.0995   -311595.59 
     640    385.14093    162701.47     72.21239    72.212391    36.027772          120    22155.985    19824.468   -36675.095   -71.631768    1339.5961   -836.13982     72.21239    62.537765    36.027772    1768.4528   -311605.94 
     650    375.62216    162687.42    72.210312    72.210312    36.026735          120    22222.116     21403.72   -34871.958   -127.38149    931.60154   -878.70859    72.210312    62.535965    36.026735    2917.9594   -311604.74 
     660     370.3956    162675.66    72.208571    72.208572    36.025866          120    22823.203    21600.205   -33030.598    294.91625    419.75422   -1369.3427    72.208571    62.534458    36.025866    3797.6036   -311611.84 
     670    368.44379    162666.51    72.207217    72.207218    36.025191          120    22964.776    21573.779    -30410.23     177.1252    244.36691   -1029.1052    72.207217    62.533285    36.025191    4709.4416   -311624.62 
     680    366.52553     162660.2    72.206285    72.206285    36.024725          120    22166.953    21745.713   -29987.077    256.97489    672.40746   -213.98976    72.206285    62.532477    36.024725    4641.8631   -311637.28 
     690    359.98493    162656.59     72.20575     72.20575    36.024459          120    22402.446    21930.812   -31602.389    490.44203    965.85788   -27.343983     72.20575    62.532014    36.024459     4243.623   -311639.59 
     700    354.97158    162655.28    72.205556    72.205557    36.024362          120    22026.265    21214.077   -33291.034    532.46153    1156.2184   -90.449158    72.205556    62.531846    36.024362    3316.4362   -311645.43 
     710    354.91895     162655.7    72.205618    72.205619    36.024393          120    21269.495    20489.597   -34259.097    491.12647    843.31844    269.63318    72.205618      62.5319    36.024393    2499.9983   -311659.72 
     720     352.4516    162657.39    72.205868    72.205869    36.024518          120    22221.116    20820.127   -35080.787    504.98202     1003.622    -278.8326    72.205868    62.532117    36.024518    2653.4856   -311669.35 
     730    347.60332    162660.33    72.206304    72.206305    36.024735          120    22758.699    21281.105   -34557.592    269.49031    745.51037   -792.44788    72.206304    62.532494    36.024735    3160.7372   -311673.48 
     740    345.38312    162664.68    72.206947    72.206947    36.025056          120    21960.184    21388.192   -33690.934   -70.256028    987.86601    -758.8218    72.206947    62.533051    36.025056    3219.1473   -311682.35 
     750      341.457    162670.43    72.207797    72.207798     36.02548          120    21516.164    21315.065   -32467.609      21.3397    1417.7327   -70.997927    72.207797    62.533787     36.02548    3454.5402   -311687.72 
     760    340.31266     162677.6    72.208858    72.208859    36.026009          120    21455.025    21620.214   -32064.861   -179.01657    806.22194   -62.859265    72.208858    62.534706    36.026009    3670.1261   -311698.29 
     770    335.90597    162686.24    72.210137    72.210137    36.026647          120    21999.502    21511.315   -31905.073   -72.873547    912.25447   -381.11867    72.210137    62.535814    36.026647    3868.5817   -311701.91 
     780     338.1993    162696.36    72.211635    72.211635    36.027395          120    21942.612    21309.828    -32409.66   -307.36013     1168.287    637.50658    72.211635    62.537111    36.027395    3614.2601   -311718.48 
     790    331.03273    162707.77    72.213322    72.213323    36.028237          120     21940.79    20336.035   -32973.644   -55.213815    1040.1275    529.40679    72.213322    62.538572    36.028237    3101.0603   -311716.38 
     800    328.65208    162720.13    72.215151    72.215151    36.029149          120    21435.326    19762.237   -34350.511    344.43539     1198.894    928.64693    72.215151    62.540156    36.029149    2282.3505    -311723.5 
     810    325.28605    162733.03    72.217059    72.217059    36.030101          120    21475.535    19400.422    -35606.89     282.5449    1562.7574    1090.5433    72.217059    62.541808    36.030101    1756.3556   -311727.92 
     820    324.59414    162746.17    72.219003    72.219003    36.031071          120    20729.274    19527.501    -36140.17     352.1894    1444.7149    835.12164    72.219003    62.543492    36.031071    1372.2016   -311737.23 
     830    321.78645    162759.37    72.220955    72.220956    36.032045          120    21231.575    19079.321   -35932.876    230.77991    2034.8365    438.30477    72.220955    62.545183    36.032045    1459.3399   -311742.46 
     840    317.27419    162772.69    72.222925    72.222926    36.033028          120    22110.841    19433.373   -34859.953    414.73436    2324.5969    89.042204    72.222925    62.546889    36.033028    2228.0871   -311744.02 
     850    316.34528    162786.47    72.224963    72.224964    36.034044          120    21949.845    20122.273   -33788.331    473.93741    2813.4699    -104.8187    72.224963    62.548653    36.034044    2761.2625   -311751.91 
     860    312.99629    162800.96    72.227106    72.227107    36.035114          120    21901.686    19931.886    -32779.05    490.29537    2438.3774   -44.282281    72.227106     62.55051    36.035114    3018.1742   -311754.01 
     870    310.49649    162816.26    72.229369    72.229369    36.036242          120    22129.164    20166.234   -33951.069    569.96987    1954.8364    123.27603    72.229369    62.552469    36.036242     2781.443   -311757.69 
     880    311.70403     162832.2    72.231725    72.231726    36.037418          120    21862.791    19921.264   -35886.172    218.38174    1668.1372    742.71421    72.231725     62.55451    36.037418    1965.9612      -311769 
     890    307.42361    162848.42    72.234124    72.234124    36.038615          120     21236.51    20567.477   -36143.198     15.50406    902.90432    1144.4668    72.234124    62.556587    36.038615    1886.9299   -311768.51 
     900      303.293    162864.78    72.236543    72.236544    36.039822          120    20952.473    19396.365   -36975.897    170.20951    905.51218    450.13552    72.236543    62.558682    36.039822    1124.3139   -311768.02 
     910    301.75306    162880.97    72.238937    72.238937    36.041016          120    20664.157    18767.538   -37016.663    159.61962    952.42823    407.78546    72.238937    62.560755    36.041016    805.01037    -311772.6 
     920    303.04312    162896.85    72.241285    72.241285    36.042187          120    20751.068    18785.043   -36395.827   -48.983206    863.26513    840.44759    72.241285    62.562788    36.042187    1046.7613   -311781.66 
     930    301.52504    162912.52    72.243601    72.243601    36.043343          120    20728.783    18562.197   -36457.008    32.146762    833.16421    872.62742    72.243601    62.564794    36.043343    944.65719   -311784.82 
     940    299.91761    162927.93    72.245879    72.245879     36.04448          120    19891.956    18069.148   -35933.639    561.88071    1337.8034    264.27989    72.245879    62.566767     36.04448    675.82141   -311788.73 
     950    298.92086    162943.05    72.248113    72.248114    36.045594          120    20667.591    19000.572   -35161.221    1090.9987    1423.2103    92.961181    72.248113    62.568702    36.045594    1502.3142   -311792.36 
     960    296.97749     162958.2    72.250352    72.250352    36.046711          120    21066.362    19321.551   -35922.038    1413.4615    1805.4382    914.47613    72.250352     62.57064    36.046711     1488.625   -311794.15 
     970    298.18621     162973.4    72.252599    72.252599    36.047832          120    20705.804    18719.059   -36754.305    1491.6359    1875.0163    1002.5993    72.252599    62.572587    36.047832    890.18582   -311802.26 
     980    298.67603    162988.35    72.254808    72.254808    36.048934          120    20160.287    17730.639   -38211.293    900.57607    1703.3058    1157.3653    72.254808      62.5745    36.048934   -106.78877    -311808.5 
     990    291.00464    163002.62    72.256917    72.256918    36.049987          120    20023.421    17549.975   -38833.073    534.95982    1588.4183    699.99782    72.256917    62.576326    36.049987   -419.89195    -311798.6 
    1000    291.02741    163016.05      72.2589    72.258901    36.050976          120    19411.338    18103.321   -39369.983    72.026937    1336.8287    752.49588      72.2589    62.578044    36.050976   -618.44151   -311802.22 
Loop time of 300.034 on 1 procs for 1000 steps with 14848 atoms

Performance: 0.288 ns/day, 83.343 hours/ns, 3.333 timesteps/s
100.0% CPU use with 1 MPI tasks x no OpenMP threads

MPI task timing breakdown:
Section |  min time  |  avg time  |  max time  |%varavg| %total
---------------------------------------------------------------
Pair    | 235.95     | 235.95     | 235.95     |   0.0 | 78.64
Bond    | 0.00017357 | 0.00017357 | 0.00017357 |   0.0 |  0.00
Kspace  | 10.759     | 10.759     | 10.759     |   0.0 |  3.59
Neigh   | 46.718     | 46.718     | 46.718     |   0.0 | 15.57
Comm    | 0.3879     | 0.3879     | 0.3879     |   0.0 |  0.13
Output  | 0.010503   | 0.010503   | 0.010503   |   0.0 |  0.00
Modify  | 6.1145     | 6.1145     | 6.1145     |   0.0 |  2.04
Other   |            | 0.09301    |            |       |  0.03

Nlocal:    14848 ave 14848 max 14848 min
Histogram: 1 0 0 0 0 0 0 0 0 0
Nghost:    46854 ave 46854 max 46854 min
Histogram: 1 0 0 0 0 0 0 0 0 0
Neighs:    1.00959e+07 ave 1.00959e+07 max 1.00959e+07 min
Histogram: 1 0 0 0 0 0 0 0 0 0

Total # of neighbors = 10095932
Ave neighs/atom = 679.952
Ave special neighs/atom = 0
Neighbor list builds = 170
Dangerous builds = 0
PPPM initialization ...
  using 12-bit tables for long-range coulomb (../kspace.cpp:321)
  G vector (1/distance) = 0.202626
  grid = 36 50 24
  stencil order = 5
  estimated absolute RMS force accuracy = 0.000996344
  estimated relative force accuracy = 6.91923e-05
  using double precision FFTs
  3d grid and FFT values/proc = 65395 43200
Setting up Verlet run ...
  Unit style    : metal
  Current step  : 0
  Time step     : 0.001
Per MPI rank memory allocation (min/avg/max) = 151.5 | 151.5 | 151.5 Mbytes
Step Temp Volume Cella Cellb Cellc CellGamma Pxx Pyy Pzz Pxy Pxz Pyz Lx Ly Lz Press PotEng 
       0    291.02741    163016.05      72.2589    72.258901    36.050976          120    19423.949    18116.014    -39363.08    72.547669    1336.7509    752.47309      72.2589    62.578044    36.050976   -607.70566   -311802.04 
  100000    299.78216    163684.92    72.357594    72.357595    36.100216          120     22691.36    17057.285   -35674.806    899.81723   -901.58845    704.03911    72.357594    62.663515    36.100216    1357.9464   -311878.81 
Loop time of 28172.6 on 1 procs for 100000 steps with 14848 atoms

Performance: 0.307 ns/day, 78.257 hours/ns, 3.550 timesteps/s
100.0% CPU use with 1 MPI tasks x no OpenMP threads

MPI task timing breakdown:
Section |  min time  |  avg time  |  max time  |%varavg| %total
---------------------------------------------------------------
Pair    | 22862      | 22862      | 22862      |   0.0 | 81.15
Bond    | 0.01409    | 0.01409    | 0.01409    |   0.0 |  0.00
Kspace  | 1066.6     | 1066.6     | 1066.6     |   0.0 |  3.79
Neigh   | 3587       | 3587       | 3587       |   0.0 | 12.73
Comm    | 34.317     | 34.317     | 34.317     |   0.0 |  0.12
Output  | 9.8944e-05 | 9.8944e-05 | 9.8944e-05 |   0.0 |  0.00
Modify  | 613.49     | 613.49     | 613.49     |   0.0 |  2.18
Other   |            | 8.834      |            |       |  0.03

Nlocal:    14848 ave 14848 max 14848 min
Histogram: 1 0 0 0 0 0 0 0 0 0
Nghost:    46772 ave 46772 max 46772 min
Histogram: 1 0 0 0 0 0 0 0 0 0
Neighs:    1.00527e+07 ave 1.00527e+07 max 1.00527e+07 min
Histogram: 1 0 0 0 0 0 0 0 0 0

Total # of neighbors = 10052741
Ave neighs/atom = 677.043
Ave special neighs/atom = 0
Neighbor list builds = 13134
Dangerous builds = 0
 
All done!
Total wall time: 7:54:33
