LAMMPS (16 Mar 2018)
Reading data file ...
  triclinic box = (0 0 0) to (9.208 7.97436 18.376) with tilt (-4.604 0 0)
  1 by 1 by 1 MPI processor grid
  reading atoms ...
  116 atoms
Finding 1-2 1-3 1-4 neighbors ...
  special bond factors lj:   0          0          0         
  special bond factors coul: 0          0          0         
  0 = max # of 1-2 neighbors
  0 = max # of 1-3 neighbors
  0 = max # of 1-4 neighbors
  1 = max # of special neighbors
Replicating atoms ...
  triclinic box = (0 0 0) to (73.664 63.7949 36.752) with tilt (-36.832 0 0)
  1 by 1 by 1 MPI processor grid
  14848 atoms
Finding 1-2 1-3 1-4 neighbors ...
  special bond factors lj:   0          0          0         
  special bond factors coul: 0          0          0         
  0 = max # of 1-2 neighbors
  0 = max # of 1-3 neighbors
  0 = max # of 1-4 neighbors
  1 = max # of special neighbors
  Time spent = 0.00365901 secs
PPPM initialization ...
WARNING: System is not charge neutral, net charge = -0.2048 (../kspace.cpp:302)
  using 12-bit tables for long-range coulomb (../kspace.cpp:321)
  G vector (1/distance) = 0.201681
  grid = 36 50 24
  stencil order = 5
  estimated absolute RMS force accuracy = 0.00105653
  estimated relative force accuracy = 7.33721e-05
  using double precision FFTs
  3d grid and FFT values/proc = 65395 43200
Neighbor list info ...
  update every 1 steps, delay 0 steps, check yes
  max neighbors/atom: 2000, page size: 100000
  master list distance cutoff = 15.3
  ghost atom cutoff = 15.3
  binsize = 7.65, bins = 15 9 5
  3 neighbor lists, perpetual/occasional/extra = 3 0 0
  (1) pair morse, perpetual
      attributes: half, newton on
      pair build: half/bin/newton/tri
      stencil: half/bin/3d/newton/tri
      bin: standard
  (2) pair buck, perpetual, copy from (1)
      attributes: half, newton on
      pair build: copy
      stencil: none
      bin: none
  (3) pair lj/cut/coul/long, perpetual, copy from (1)
      attributes: half, newton on
      pair build: copy
      stencil: none
      bin: none
Setting up Verlet run ...
  Unit style    : metal
  Current step  : 0
  Time step     : 0.001
Per MPI rank memory allocation (min/avg/max) = 145.7 | 145.7 | 145.7 Mbytes
Step Temp Volume Cella Cellb Cellc CellGamma Pxx Pyy Pzz Pxy Pxz Pyz Lx Ly Lz Press PotEng 
       0          480    172711.88       73.664    73.664001       36.752          120   -205778.75   -205860.81    -276835.4    39.094172   -12.206755    16.324473       73.664    63.794896       36.752   -229491.65   -309191.56 
      10    444.97873    172670.44    73.658108    73.658108     36.74906          120   -204703.18   -204790.28   -251569.05     138.8337   -34.062016   -219.70927    73.658108    63.789793     36.74906   -220354.17   -309147.01 
      20    730.52856    172549.38     73.64089     73.64089     36.74047          120   -197513.52   -197241.89   -190520.13    50.083501   -281.45793   -484.04206     73.64089    63.774882     36.74047   -195091.85   -309717.98 
      30    775.89585    172358.91    73.613784    73.613785    36.726947          120   -162969.75   -162773.76   -111213.99   -176.52411   -853.83222   -522.65531    73.613784    63.751408    36.726947    -145652.5   -309841.43 
      40     554.7655    172118.47    73.579538    73.579538    36.709861          120   -113112.72   -113577.98   -31194.213   -942.49593   -1162.8582   -531.21563    73.579538     63.72175    36.709861   -85961.637   -309439.57 
      50    652.84369    171851.32    73.541449     73.54145    36.690858          120   -77099.571   -78075.404   -6195.1166   -603.91329   -1043.2699   -646.02303    73.541449    63.688764    36.690858   -53790.031   -309637.42 
      60    920.83064    171572.42    73.501645    73.501645    36.670999          120   -61869.215   -61564.453   -50045.531   -934.58522   -1902.8613   -554.04763    73.501645    63.654292    36.670999     -57826.4   -310169.28 
      70    1067.6207    171285.31    73.460621    73.460622    36.650532          120   -53409.656   -53596.956   -113848.31   -1896.8518   -2473.5513   -758.42542    73.460621    63.618765    36.650532   -73618.309   -310493.01 
      80    939.74848    170989.18    73.418263    73.418264    36.629398          120   -49298.625   -50926.368   -158954.66   -1922.8935   -2536.2973   -26.682542    73.418263    63.582082    36.629398   -86393.218   -310296.14 
      90    695.49222    170684.65    73.374651    73.374651     36.60764          120   -45594.138   -46266.565   -171548.82   -2063.1561   -3004.6831   -943.23792    73.374651    63.544312     36.60764   -87803.173    -309867.8 
     100    713.08352    170376.61    73.330484    73.330484    36.585604          120   -29445.686   -29654.826   -150359.94   -1905.9826   -2726.3533   -1276.5189    73.330484    63.506062    36.585604   -69820.151   -309936.08 
     110    873.79229    170075.37     73.28724     73.28724    36.564029          120   -9465.1122    -10008.86   -109578.37   -1919.1511   -1198.2117   -1636.7034     73.28724    63.468612    36.564029   -43017.448    -310283.2 
     120    894.30862    169792.34    73.246564    73.246565    36.543735          120    1209.0899    1144.7181   -62416.595   -1867.6376   -680.08835   -1681.2838    73.246564    63.433386    36.543735   -20020.929   -310364.39 
     130    801.96459    169535.23    73.209575    73.209575    36.525281          120      1083.43    2241.3222   -25302.577   -1531.3364   -840.79336   -1817.5385    73.209575    63.401352    36.525281   -7325.9417   -310224.98 
     140    752.80336    169306.15    73.176585    73.176586    36.508822          120   -3021.6006   -3150.6298   -11871.822   -889.65886   -848.24797   -1975.7647    73.176585    63.372783    36.508822   -6014.6843   -310161.78 
     150    790.93907    169102.07    73.147171    73.147172    36.494147          120   -10442.847   -9645.8316   -30673.837   -1738.3662   -458.08318   -1663.1534    73.147171    63.347309    36.494147   -16920.838   -310266.24 
     160    851.81519    168915.92     73.12032    73.120321    36.480751          120   -19451.225   -18493.537   -63187.296   -1474.6712   -1305.9869   -2129.1625     73.12032    63.324056    36.480751   -33710.686   -310422.12 
     170    850.90333    168739.41    73.094843    73.094843     36.46804          120   -23948.164   -22834.652   -92513.662    -1029.542   -1984.6996   -2077.4056    73.094843    63.301991     36.46804   -46432.159   -310463.02 
     180    783.18105    168566.27    73.069834    73.069834    36.455562          120   -22796.867   -20915.273    -111209.6   -1194.0149    -2396.838   -2196.3349    73.069834    63.280333    36.455562   -51640.581   -310375.46 
     190    751.74486    168393.29    73.044831    73.044832    36.443088          120    -19015.15   -17022.807      -112359   -742.08343   -2418.1249    -2245.113    73.044831     63.25868    36.443088   -49465.654   -310353.78 
     200    781.43056    168220.08    73.019778    73.019779    36.430589          120   -14640.954     -14329.1   -96531.053   -1238.2445   -2032.9542   -2089.6689    73.019778    63.236984    36.430589   -41833.702    -310448.7 
     210    800.13346    168048.14    72.994891    72.994891    36.418172          120   -10097.581   -10215.491   -75042.337   -1536.6028   -1902.6052   -1756.6603    72.994891     63.21543    36.418172   -31785.136   -310523.23 
     220    783.51748    167879.72    72.970497    72.970498    36.406002          120   -7530.0217   -5828.6372   -56894.469   -1490.6704   -1178.3634   -2784.7865    72.970497    63.194305    36.406002   -23417.709   -310529.23 
     230    763.99376     167716.5    72.946841    72.946841    36.394199          120   -7297.8188   -5955.3286   -47642.054   -1009.7544   -661.44664   -3380.4368    72.946841    63.173818    36.394199   -20298.401   -310527.55 
     240    756.01145    167558.52     72.92393     72.92393    36.382768          120   -10078.562   -7941.9028    -48868.61   -607.39232   -1799.0976   -3707.3371     72.92393    63.153976    36.382768   -22296.358   -310548.14 
     250    767.25802    167404.26    72.901545    72.901546    36.371601          120   -13147.073   -11489.261   -60256.777   -469.78133   -2474.5577   -3451.5731    72.901545    63.134591    36.371601   -28297.704   -310605.83 
     260    776.12478    167251.28    72.879331    72.879332    36.360518          120   -14568.695   -14434.443   -73191.945   -586.61453   -2524.2836   -3726.3513    72.879331    63.115353    36.360518   -34065.028   -310662.01 
     270    757.25252    167097.38    72.856971    72.856971    36.349362          120   -13789.837    -15738.56   -83623.999   -194.47658   -2313.1006   -3266.6189    72.856971    63.095988    36.349362   -37717.465   -310664.86 
     280    735.98094    166941.33    72.834283    72.834284    36.338043          120   -13350.145   -13085.671    -86146.79   -148.55195   -1803.7133   -1981.2429    72.834283     63.07634    36.338043   -37527.535   -310661.79 
     290    732.43575    166783.34      72.8113      72.8113    36.326576          120   -9809.5243    -7246.751   -79391.798    281.73616   -1272.7742   -2211.3728      72.8113    63.056436    36.326576   -32149.358   -310691.19 
     300     736.9001    166625.22    72.788282    72.788283    36.315092          120   -5619.6252   -3021.7824    -68142.66    571.22884   -1381.0108   -1835.8788    72.788282    63.036502    36.315092   -25594.689   -310734.71 
     310    728.44377    166469.19    72.765555    72.765556    36.303753          120   -2596.5587   -1081.2483    -55845.96    334.90306   -244.09119   -2380.6168    72.765555     63.01682    36.303753   -19841.256   -310753.06 
     320    717.65451    166317.04     72.74338    72.743381     36.29269          120   -875.15534   -1187.1353    -47079.37    480.72273     -338.329   -1767.2274     72.74338    62.997616     36.29269   -16380.554   -310766.25 
     330    708.24954    166169.76    72.721902    72.721902    36.281974          120   -657.32252   -963.65975   -43322.767    314.12177   -438.90292   -2005.3266    72.721902    62.979015    36.281974    -14981.25   -310781.67 
     340    708.37257    166027.53    72.701148    72.701148     36.27162          120   -2560.4781   -500.95886   -47818.071   -36.807367   -986.02314   -2000.6393    72.701148    62.961042     36.27162   -16959.836   -310814.64 
     350    707.68648    165889.52    72.680997    72.680997    36.261566          120   -3291.9459    -950.9037   -57107.045   -435.44723   -1353.7425   -2139.4034    72.680997     62.94359    36.261566   -20449.965   -310846.23 
     360    692.19809    165754.43    72.661262    72.661263     36.25172          120   -3076.1628   -502.76578   -65590.138   -647.50974   -1198.6801   -2284.0245    72.661262      62.9265     36.25172   -23056.355   -310848.79 
     370     681.7979    165621.35    72.641812    72.641813    36.242016          120   -2146.3063    463.47458    -68431.85   -365.19154   -3519.1557   -2716.6195    72.641812    62.909655    36.242016    -23371.56   -310860.22 
     380    681.50474    165490.19    72.622632    72.622632    36.232447          120    433.13891    2673.8842   -63716.169   -747.76158   -3834.5349    -3123.916    72.622632    62.893044    36.232447   -20203.049   -310890.44 
     390    676.65161    165361.81    72.603848    72.603848    36.223075          120     3555.681    5060.1065   -57419.168   -973.43866   -3179.9587   -2506.3911    72.603848    62.876777    36.223075   -16267.793   -310911.55 
     400    669.36092    165237.34    72.585627    72.585627    36.213984          120    6058.6807    6205.2259   -49926.892   -830.20093   -2326.6445   -2262.7023    72.585627    62.860997    36.213984   -12554.328    -310927.2 
     410    666.09912    165117.72    72.568106    72.568106    36.205243          120    6360.5942    7186.3152   -43164.883   -803.65937   -1625.6291    -2676.154    72.568106    62.845824    36.205243    -9872.658   -310950.31 
     420    661.09761    165003.45    72.551362    72.551362    36.196889          120    6415.9845      8130.83   -40931.339   -226.03302   -2053.1674    -2084.533    72.551362    62.831323    36.196889   -8794.8416   -310969.88 
     430    654.41134    164894.49    72.535389    72.535389     36.18892          120    6835.4785    7069.1966   -42935.048   -166.50358   -1951.0232   -2382.7426    72.535389     62.81749     36.18892    -9676.791   -310984.98 
     440    643.32334    164790.19    72.520092    72.520093    36.181288          120    6425.5612    5696.5676   -47323.751      508.326   -2250.8119   -1450.8922    72.520092    62.804243    36.181288   -11733.874   -310991.77 
     450    637.51499    164689.57    72.505328    72.505329    36.173922          120    5960.0528    5670.4832   -52022.603     448.8525   -1998.0128   -726.66463    72.505328    62.791457    36.173922   -13464.022   -311007.62 
     460    628.52106    164591.85    72.490986    72.490986    36.166767          120    7592.9329    7887.7112   -53856.831    1080.9776   -1897.0769   -1541.7963    72.490986    62.779036    36.166767   -12792.062   -311016.51 
     470    622.02339    164496.95     72.47705    72.477051    36.159814          120    8789.5208    9876.2568   -53113.463    1640.7669   -3002.2296   -1022.0258     72.47705    62.766968    36.159814   -11482.562   -311028.98 
     480    620.73196    164405.07    72.463555    72.463555    36.153081          120    10193.334    11169.963   -48372.883    1445.0494   -2540.0971   -1692.2651    72.463555     62.75528    36.153081   -9003.1952   -311051.42 
     490    615.33777    164316.73    72.450572    72.450573    36.146604          120    10542.704    13970.606    -42876.78    1224.7299   -2995.8077   -2059.3747    72.450572    62.744037    36.146604   -6121.1565   -311064.97 
     500    604.26094    164232.53    72.438195    72.438196    36.140429          120     13078.35    15797.367    -38351.25    1292.7503   -1865.6509   -2563.7721    72.438195    62.733318    36.140429   -3158.5109   -311067.41 
     510    609.85828    164153.02    72.426503    72.426504    36.134596          120    13922.318    15951.197   -36518.071    1693.9896   -1722.9107   -1938.8513    72.426503    62.723192    36.134596   -2214.8518   -311101.42 
     520    607.59076    164078.14    72.415489     72.41549    36.129101          120    13482.252    15518.823   -36583.719    2170.8803   -685.81972   -1017.7222    72.415489    62.713654    36.129101   -2527.5481   -311120.19 
     530    603.61222    164007.45    72.405088    72.405089    36.123911          120    14451.299    15750.134   -39218.528    2462.0982   -36.680976   -949.81252    72.405088    62.704647    36.123911   -3005.6986   -311135.63 
     540    593.25658    163940.44    72.395226    72.395226    36.118991          120    14648.056     16226.89   -43003.214    2177.4556   -616.40306   -525.51274    72.395226    62.696105    36.118991   -4042.7559   -311137.94 
     550    592.71007    163876.52    72.385815    72.385816    36.114296          120    14701.992    16579.972    -44424.83    1827.5351   -523.51391   -701.46171    72.385815    62.687955    36.114296   -4380.9555    -311158.7 
     560    583.40845    163815.33    72.376804    72.376805      36.1098          120    14723.328    16554.549   -42639.802    1014.8259    203.75893   -1013.2114    72.376804    62.680152      36.1098   -3787.3085   -311163.01 
     570    574.88218    163756.83    72.368188    72.368189    36.105501          120      15890.6    17457.831   -40511.549    1221.1057    353.60181   -819.04481    72.368188     62.67269    36.105501   -2387.7061   -311167.32 
     580    575.48208    163701.23    72.359998    72.359998    36.101415          120    17466.247    18058.541   -37517.555    1216.7942   -697.20139   -1668.9602    72.359998    62.665597    36.101415   -664.25556   -311188.87 
     590    565.07414    163648.81    72.352273    72.352274    36.097561          120    17587.177    18071.421   -34958.722    1500.2804    -340.1612   -2374.2608    72.352273    62.658907    36.097561    233.29168   -311189.12 
     600    560.84399    163599.63    72.345024    72.345025    36.093945          120    17901.475    18259.707   -34337.574    2593.9318    170.69503   -2803.3614    72.345024    62.652629    36.093945    607.86895   -311200.06 
     610    561.74231    163553.56    72.338234    72.338234    36.090557          120    17731.577    18702.662   -34173.085    2274.8488      166.326   -1289.9118    72.338234    62.646749    36.090557    753.71795   -311220.59 
     620    561.75218    163510.43    72.331873    72.331874    36.087383          120    18549.891     18987.57   -36038.384    1738.2296    396.11879   -1263.1971    72.331873     62.64124    36.087383    499.69216   -311238.64 
     630    554.59444    163469.93    72.325901    72.325901    36.084404          120    19174.236    18171.489   -37846.194    1441.0109    509.02385   -1063.7572    72.325901    62.636068    36.084404   -166.82318    -311243.4 
     640    546.08138    163431.72    72.320265    72.320266    36.081592          120    19389.839    18717.993   -38824.718    1072.5379    936.74038   -423.21235    72.320265    62.631187    36.081592   -238.96187   -311244.61 
     650    543.86101     163395.6    72.314938    72.314938    36.078934          120    19695.456    19331.899   -38578.416    1024.5233    969.50387   -441.57466    72.314938    62.626574    36.078934    149.64641   -311258.14 
     660    541.99012    163361.53    72.309911    72.309912    36.076426          120    19176.157    19623.835   -37017.572    1478.0917    465.93466   -537.85435    72.309911    62.622221    36.076426    594.13991   -311272.24 
     670    540.42882    163329.53    72.305188    72.305189     36.07407          120    19954.987    19264.632    -34786.59    1569.6112     439.5845   -1197.3572    72.305188     62.61813     36.07407    1477.6764   -311285.42 
     680    535.74074    163299.71    72.300788    72.300788    36.071874          120    20050.987    19946.739   -33688.123    1255.1516   -658.53833   -1300.1253    72.300788    62.614319    36.071874    2103.2011   -311292.37 
     690    530.67013    163272.12    72.296717    72.296717    36.069843          120    20249.398    19649.198   -32557.409    1262.7364    -777.6311    -772.2228    72.296717    62.610794    36.069843    2447.0622   -311298.99 
     700    528.35937    163246.75    72.292972    72.292973    36.067975          120    20128.981    20148.561   -32149.805    1207.4914     478.4831   -985.31941    72.292972    62.607551    36.067975    2709.2459   -311309.49 
     710    523.47378    163223.54    72.289546    72.289546    36.066265          120    20489.916    20386.181   -33325.042    229.72897   -91.939634   -786.34507    72.289546    62.604584    36.066265    2517.0181   -311314.42 
     720    520.08609    163202.28    72.286406    72.286407    36.064699          120    19461.696    20299.027   -35796.736    822.86663     347.2161   -1184.7824    72.286406    62.601865    36.064699     1321.329   -311322.75 
     730    520.73391    163182.53    72.283491    72.283491    36.063245          120     18885.89    19621.374    -35871.86    1292.5937    907.59987   -883.37749    72.283491     62.59934    36.063245    878.46774   -311338.29 
     740    512.62741    163164.07    72.280764    72.280765    36.061884          120    19228.727    19697.681   -34396.061    1100.6573    1097.6755   -225.02239    72.280764    62.596979    36.061884    1510.1156   -311336.48 
     750    511.38706    163147.02    72.278247    72.278248    36.060629          120    20862.512    21089.257   -32973.682    1489.4485    1855.8492   -31.967339    72.278247    62.594799    36.060629    2992.6957   -311347.39 
     760    507.10356    163131.73    72.275989     72.27599    36.059502          120    21905.363    21789.984   -32399.223    2434.2721    2029.1229   -619.88905    72.275989    62.592844    36.059502    3765.3748   -311351.94 
     770    504.01971    163118.34    72.274011    72.274012    36.058515          120    21272.033    21829.323   -32178.597    2226.3665    1701.2848    -837.4717    72.274011    62.591131    36.058515    3640.9197   -311358.33 
     780    501.89578    163106.74    72.272299    72.272299    36.057661          120    22275.472    21899.182   -32132.523    1297.7857    1379.1279   -131.22369    72.272299    62.589647    36.057661    4014.0433   -311365.96 
     790    502.16399    163096.96    72.270853    72.270854     36.05694          120    22626.645    22679.904   -31993.906    1241.4131     1097.218   -676.43344    72.270853    62.588396     36.05694    4437.5477   -311377.78 
     800    500.21476       163089    72.269677    72.269678    36.056353          120    22940.773    21823.496   -33001.682    1895.0329    837.92367   -905.49318    72.269677    62.587377    36.056353    3920.8625   -311385.19 
     810    498.36731    163082.63    72.268737    72.268737    36.055884          120    22327.631    20703.066    -33339.74    1599.5114    539.74932    -865.5666    72.268737    62.586562    36.055884    3230.3191   -311392.95 
     820    493.91972    163077.59    72.267993    72.267993    36.055512          120    21625.859    20859.357   -33307.237     1443.507    753.04102   -328.80008    72.267993    62.585918    36.055512    3059.3265   -311395.06 
     830    492.32264    163073.79    72.267431    72.267432    36.055232          120    22077.804    21803.444   -33085.765     1295.513    567.45474    126.81542    72.267431    62.585432    36.055232    3598.4946   -311401.92 
     840     490.9093    163071.28    72.267061    72.267061    36.055047          120    21660.094    22315.455   -33128.644    1339.3025    598.93562   -124.15264    72.267061    62.585111    36.055047     3615.635   -311408.87 
     850    486.24036    163070.04    72.266878    72.266878    36.054956          120    21568.077    22394.316   -31566.647    1238.7672    267.81333   -1380.3562    72.266878    62.584952    36.054956    4131.9157   -311409.71 
     860    479.63071    163070.16    72.266894    72.266895    36.054964          120    21429.298    23115.248   -30590.644    533.47805    765.18124   -1990.4708    72.266894    62.584967    36.054964    4651.3006   -311406.23 
     870    482.86853    163071.71    72.267124    72.267124    36.055079          120    22062.303    21855.188   -31376.649    1212.5518     1680.369   -2003.7861    72.267124    62.585166    36.055079    4180.2805   -311420.83 
     880    483.47124    163074.51    72.267538    72.267539    36.055286          120    21233.186    21733.934   -33212.356    970.34089    846.10741   -2038.8499    72.267538    62.585524    36.055286     3251.588   -311429.96 
     890    476.58093    163078.26    72.268091    72.268091    36.055561          120    21004.008    21796.321   -34494.018    400.34992    645.64904   -1796.8363    72.268091    62.586003    36.055561    2768.7705      -311424 
     900     475.6478    163082.74    72.268753    72.268753    36.055892          120     20887.41    21761.411   -34876.384    570.43062    908.56889   -1266.0628    72.268753    62.586576    36.055892    2590.8122   -311429.05 
     910    474.05975    163087.89    72.269514    72.269515    36.056271          120    21056.792    22635.384   -34089.937    638.06545    874.59005   -852.49325    72.269514    62.587236    36.056271    3200.7465   -311432.91 
     920    467.44295    163093.85    72.270394    72.270394     36.05671          120    22143.332     22824.51    -33870.26     1183.023    676.78782   -1054.8295    72.270394    62.587998     36.05671    3699.1944   -311426.72 
     930    470.60032    163100.72    72.271409     72.27141    36.057217          120     22345.79     23242.15   -33317.811    772.43208    125.85243   -1449.8907    72.271409    62.588877    36.057217     4090.043   -311438.86 
     940    473.37945    163108.62    72.272575    72.272576    36.057799          120    21595.345    23447.447   -32697.966    680.16998     -376.012    -1225.065    72.272575    62.589887    36.057799    4114.9419    -311449.2 
     950    471.79108    163117.49    72.273885    72.273886    36.058452          120    21403.821    21954.604   -33190.393    739.82102    -121.6014   -211.98323    72.273885    62.591021    36.058452    3389.3441   -311451.31 
     960    473.32606    163127.11    72.275307    72.275307    36.059162          120    21747.069    21177.296    -33605.84    1031.0741    658.17279   -481.67524    72.275307    62.592252    36.059162    3106.1751   -311458.56 
     970    468.83973    163137.35    72.276819    72.276819    36.059916          120     21543.84    21340.356   -34185.266    816.77465    976.58052   -849.43934    72.276819    62.593562    36.059916    2899.6433   -311454.05 
     980    467.34077    163148.11    72.278408    72.278409    36.060709          120    20623.954    21251.643    -33672.34    711.67301    1577.8629   -1534.8752    72.278408    62.594938    36.060709    2734.4189   -311454.26 
     990    468.00353    163159.34    72.280067    72.280067    36.061536          120    20251.646    21086.545   -32758.328    917.72806    942.25753    -655.4969    72.280067    62.596375    36.061536    2859.9542   -311458.71 
    1000    467.64759    163171.06    72.281796    72.281797    36.062399          120    19935.076    22099.152   -33524.511    1228.2019    458.55967   -120.31538    72.281796    62.597872    36.062399    2836.5723    -311460.5 
Loop time of 311.785 on 1 procs for 1000 steps with 14848 atoms

Performance: 0.277 ns/day, 86.607 hours/ns, 3.207 timesteps/s
100.0% CPU use with 1 MPI tasks x no OpenMP threads

MPI task timing breakdown:
Section |  min time  |  avg time  |  max time  |%varavg| %total
---------------------------------------------------------------
Pair    | 240.34     | 240.34     | 240.34     |   0.0 | 77.09
Bond    | 0.00020313 | 0.00020313 | 0.00020313 |   0.0 |  0.00
Kspace  | 11.085     | 11.085     | 11.085     |   0.0 |  3.56
Neigh   | 53.439     | 53.439     | 53.439     |   0.0 | 17.14
Comm    | 0.44886    | 0.44886    | 0.44886    |   0.0 |  0.14
Output  | 0.010773   | 0.010773   | 0.010773   |   0.0 |  0.00
Modify  | 6.3488     | 6.3488     | 6.3488     |   0.0 |  2.04
Other   |            | 0.1097     |            |       |  0.04

Nlocal:    14848 ave 14848 max 14848 min
Histogram: 1 0 0 0 0 0 0 0 0 0
Nghost:    46843 ave 46843 max 46843 min
Histogram: 1 0 0 0 0 0 0 0 0 0
Neighs:    1.0086e+07 ave 1.0086e+07 max 1.0086e+07 min
Histogram: 1 0 0 0 0 0 0 0 0 0

Total # of neighbors = 10086007
Ave neighs/atom = 679.284
Ave special neighs/atom = 0
Neighbor list builds = 192
Dangerous builds = 0
PPPM initialization ...
  using 12-bit tables for long-range coulomb (../kspace.cpp:321)
  G vector (1/distance) = 0.20261
  grid = 36 50 24
  stencil order = 5
  estimated absolute RMS force accuracy = 0.000997304
  estimated relative force accuracy = 6.92589e-05
  using double precision FFTs
  3d grid and FFT values/proc = 65395 43200
Setting up Verlet run ...
  Unit style    : metal
  Current step  : 0
  Time step     : 0.001
Per MPI rank memory allocation (min/avg/max) = 151.5 | 151.5 | 151.5 Mbytes
Step Temp Volume Cella Cellb Cellc CellGamma Pxx Pyy Pzz Pxy Pxz Pyz Lx Ly Lz Press PotEng 
       0    467.64759    163171.06    72.281796    72.281797    36.062399          120    19947.032    22111.538   -33518.119    1228.6799    458.56697   -120.35584    72.281796    62.597872    36.062399    2846.8168   -311460.33 
      10    464.51778    163183.24    72.283595    72.283596    36.063297          120    20125.171    22709.119   -34092.263    1048.3261    1201.6199    -541.2753    72.283595     62.59943    36.063297    2914.0091   -311456.43 
      20    465.27288     163195.9    72.285465    72.285465    36.064229          120    20893.164    21531.281   -32390.371    646.15229    134.79797   -71.085413    72.285465    62.601049    36.064229    3344.6914   -311459.35 
      30    465.21355    163209.14    72.287419    72.287419    36.065204          120    20435.484     21552.45   -32388.444    578.05691    490.90573    58.774528    72.287419    62.602742    36.065204    3199.8301   -311460.11 
      40    472.81832     163222.9     72.28945    72.289451    36.066218          120    21225.352     20996.49   -33652.105    1015.4283    764.65465   -73.223078     72.28945    62.604501    36.066218    2856.5789   -311474.86 
      50    462.07889    163237.08    72.291544    72.291545    36.067263          120    20960.808    21551.794    -34156.24    759.42266    363.84153   -196.92679    72.291544    62.606314    36.067263    2785.4541   -311454.19 
      60    464.84095    163251.62     72.29369     72.29369    36.068333          120    18842.721    21819.731    -33655.57    1358.9436     -355.649   -114.22626     72.29369    62.608172    36.068333    2335.6272   -311459.18 
      70    465.39157    163266.37    72.295867    72.295868    36.069419          120    18843.625    21170.794   -34448.175     1551.466    1167.2422   -430.21017    72.295867    62.610058    36.069419    1855.4149   -311459.54 
      80     466.5321     163281.2    72.298056    72.298057    36.070512          120    20056.304    20248.623   -35211.061    1487.0824    1534.7947   -456.47273    72.298056    62.611954    36.070512    1697.9557   -311459.62 
      90    465.15705    163296.06     72.30025     72.30025    36.071606          120    20934.957    19696.729   -35236.418    777.51105    823.39636   -359.64471     72.30025    62.613854    36.071606    1798.4225   -311454.91 
     100    468.28914    163310.94    72.302445    72.302446    36.072701          120    19469.341    19748.754   -35323.908    352.66635    768.71623   -710.28038    72.302445    62.615755    36.072701    1298.0624   -311458.06 
     110    470.73838    163325.71    72.304625    72.304626    36.073789          120    20095.243    19032.095   -35760.333    439.92625    1061.7502   -1557.5338    72.304625    62.617643    36.073789    1122.3351   -311459.42 
     120    467.93246    163340.33    72.306783    72.306783    36.074865          120    19938.487    19542.845    -35828.47    390.16525    873.85365   -1669.5836    72.306783    62.619511    36.074865    1217.6208   -311450.42 
     130    472.86009    163354.83    72.308922    72.308923    36.075933          120    18230.513    20813.088   -35622.304    1155.1113    1081.4401   -764.61137    72.308922    62.621364    36.075933    1140.4326   -311455.69 
     140     474.5225    163369.19     72.31104    72.311041     36.07699          120    17593.902    20606.573   -36220.328    1523.9911    459.92294   -619.69768     72.31104    62.623199     36.07699    660.04911   -311454.83 
     150    473.23574    163383.27    72.313118    72.313119    36.078026          120    17666.531    20062.182   -35818.795    817.80447    123.09342   -617.68123    72.313118    62.624998    36.078026    636.63927   -311447.67 
     160    478.01795    163397.06    72.315152    72.315153    36.079041          120    17650.052    20097.877   -35517.666    872.60099   -217.94759    111.26224    72.315152    62.626759    36.079041    743.42099   -311452.37 
     170    477.06613     163410.6     72.31715     72.31715    36.080037          120     16970.88    20696.704   -35070.536    987.05178    149.34984    -182.0674     72.31715    62.628489    36.080037    865.68261   -311445.95 
     180    479.05668    163423.97    72.319122    72.319122    36.081021          120     17394.11    20702.005   -34532.795    1651.7306    24.343184   -1295.8649    72.319122    62.630197    36.081021    1187.7733   -311445.56 
     190    479.06407    163437.26    72.321083    72.321083       36.082          120    18714.239    19934.407   -35195.742    990.33677    337.14081   -656.83758    72.321083    62.631896       36.082    1150.9681    -311440.7 
     200    476.15069    163450.49    72.323034    72.323035    36.082973          120    18697.874    20495.517   -34766.119    1255.9224    767.61995    -354.8338    72.323034    62.633585    36.082973    1475.7573    -311430.1 
     210    479.78359    163463.72    72.324986    72.324986    36.083947          120    18899.503    19522.961   -35801.414    1484.4296    1120.9178   -778.76472    72.324986    62.635276    36.083947    873.68349   -311433.23 
     220    481.60466     163476.8    72.326915    72.326915    36.084909          120    20099.542    17873.113   -36654.435    1512.5003    923.13385   -401.39122    72.326915    62.636946    36.084909    439.40658   -311431.93 
     230    486.06446    163489.62    72.328806    72.328806    36.085853          120    21106.683    18063.562   -35487.699     1528.942    1039.0901    -932.8425    72.328806    62.638584    36.085853    1227.5154   -311436.03 
     240    484.28484    163502.38    72.330686    72.330687    36.086791          120    20105.131    18037.694   -35240.246    1240.4661    1392.8868   -987.26437    72.330686    62.640213    36.086791    967.52607   -311427.98 
     250    483.21725    163515.04    72.332553    72.332553    36.087722          120    19946.575     18428.15   -35265.393    1237.8455    1208.8833   -981.88948    72.332553    62.641829    36.087722     1036.444   -311421.63 
     260    487.14847     163527.6    72.334406    72.334406    36.088647          120    19664.235     18584.43   -34710.543     1160.617    1441.5041   -1113.0766    72.334406    62.643434    36.088647    1179.3739   -311426.09 
     270    489.34554    163540.14    72.336254    72.336255    36.089569          120    19636.451    18645.589   -34131.209     717.2746    1474.6867    -603.3165    72.336254    62.645034    36.089569    1383.6105   -311426.33 
     280    486.92871    163552.69    72.338105    72.338106    36.090493          120    19711.313    17802.399   -34269.273     718.7199     1021.993    171.20538    72.338105    62.646637    36.090493    1081.4795    -311418.4 
     290    494.88247    163565.19    72.339948    72.339948    36.091412          120    19705.136    17586.377   -35506.798    564.14012     2047.117    328.40878    72.339948    62.648233    36.091412    594.90489   -311430.73 
     300       492.46     163577.5    72.341762    72.341763    36.092317          120    19555.658    18606.253   -35868.724    530.03139    1616.4208    535.83094    72.341762    62.649805    36.092317    764.39551   -311424.08 
     310    490.14332    163589.66    72.343555    72.343556    36.093212          120    19659.846    19070.826   -36635.487    1103.0752    335.15588    655.29213    72.343555    62.651357    36.093212    698.39502   -311417.55 
     320    488.93895    163601.64    72.345321    72.345322    36.094093          120    18642.072    18196.983   -36492.999    1199.4433    693.41159    930.19142    72.345321    62.652887    36.094093    115.35224   -311414.42 
     330    492.49801    163613.29    72.347038    72.347038    36.094949          120    18650.441    17701.844   -36045.069    1331.4159    2005.0719    71.827302    72.347038    62.654373    36.094949    102.40496   -311419.86 
     340    487.83779    163624.61    72.348706    72.348706    36.095781          120    18994.201    18900.604   -35919.496    1769.8282    1797.7618    83.858499    72.348706    62.655818    36.095781    658.43657   -311410.72 
     350    492.35745    163635.77     72.35035    72.350351    36.096602          120    19341.798    18968.512   -35051.285    2253.5199    1203.7643   -754.17866     72.35035    62.657242    36.096602    1086.3416   -311419.11 
     360    495.66487    163646.89     72.35199     72.35199     36.09742          120    19092.118     18541.99   -35349.289    1592.6482    1712.8558   -623.39932     72.35199    62.658662     36.09742    761.60634   -311425.69 
     370    487.42526    163657.93    72.353617    72.353617    36.098231          120    18465.979    19220.808   -35105.842    1624.2292    2346.2042    -271.9995    72.353617    62.660071    36.098231    860.31523   -311410.57 
     380    490.69695    163668.89    72.355232    72.355233    36.099038          120    18201.088    19306.365   -35636.981    1762.4583     1693.332    814.55601    72.355232     62.66147    36.099038      623.491   -311418.34 
     390      489.647     163679.7    72.356825    72.356826    36.099832          120    18033.126    19047.606   -36923.161    1810.5568    843.81022    733.53809    72.356825    62.662849    36.099832    52.523668   -311417.86 
     400     491.3062    163690.22    72.358374    72.358375    36.100605          120     18624.63    18608.528   -36487.392    1321.2517    665.14281     1853.159    72.358374    62.664191    36.100605    248.58851   -311422.71 
     410    490.03603    163700.47    72.359885    72.359885    36.101359          120    18896.957    18931.707   -37342.391    871.21646    901.65414    1645.1323    72.359885    62.665499    36.101359    162.09102   -311422.56 
     420    490.12142    163710.46    72.361358    72.361358    36.102093          120    18442.283     19063.25   -36946.287    698.06845    1255.9748    1375.3063    72.361358    62.666774    36.102093    186.41544   -311425.75 
     430    493.03482    163720.22    72.362795    72.362795    36.102811          120    18317.713     19654.27   -36369.499    365.47687    1246.9605    132.86292    72.362795    62.668019    36.102811     534.1614   -311434.66 
     440    487.77579    163729.87    72.364217    72.364217     36.10352          120    18700.689    20530.013   -35262.946    504.88905    1147.7572   -374.03495    72.364217    62.669251     36.10352    1322.5855   -311427.75 
     450    485.00857    163739.62    72.365653    72.365653    36.104236          120    19478.282    19534.658   -35243.021    336.05132    532.53586    -509.2217    72.365653    62.670494    36.104236    1256.6396   -311427.12 
     460    485.37935    163749.46    72.367103    72.367104     36.10496          120      18947.7    18935.176   -35773.963    206.23444    1128.3017   -914.52362    72.367103     62.67175     36.10496    702.97116   -311431.53 
     470    483.47686    163759.23    72.368542    72.368542    36.105678          120    17264.638    18054.215   -35714.677    751.46598    1427.8663   -1028.7119    72.368542    62.672996    36.105678   -131.94143   -311432.97 
     480    484.90392    163768.67    72.369933    72.369934    36.106372          120    16979.856    17583.961   -37181.225    774.70238    1262.6336   -1300.0955    72.369933    62.674201    36.106372   -872.46929   -311439.62 
     490    485.20512    163777.57    72.371244    72.371245    36.107026          120    16467.094    17296.927   -37810.875    1171.0331    1121.3252   -426.74651    72.371244    62.675337    36.107026   -1348.9515    -311445.1 
     500    480.33765     163785.8    72.372456    72.372457    36.107631          120    17002.712    17525.251   -37735.659    1598.2948    852.03468    153.14824    72.372456    62.676386    36.107631    -1069.232   -311439.88 
     510    482.33666    163793.43     72.37358    72.373581    36.108192          120    16734.217    17668.249    -37277.87    1566.3804    820.73019     507.9726     72.37358     62.67736    36.108192   -958.46816   -311448.08 
     520    476.33223    163800.55    72.374628    72.374629    36.108714          120    16489.198    18108.033   -36471.133    2081.9942   -34.763498    897.95432    72.374628    62.678267    36.108714   -624.63393   -311440.94 
     530    481.19936    163807.23    72.375612    72.375613    36.109205          120    16830.551     17001.01   -37124.719    1962.9497   -156.42484    1152.6031    72.375612     62.67912    36.109205   -1097.7194   -311455.17 
     540    479.59599    163813.38    72.376517    72.376518    36.109657          120    17064.119    16424.693   -37936.164    1396.5651    1337.7574    1103.3207    72.376517    62.679903    36.109657   -1482.4508   -311455.77 
     550    478.02463     163818.9     72.37733    72.377331    36.110063          120    17151.379    16860.394   -37244.779    1524.3494    488.68142   -215.27609     72.37733    62.680607    36.110063   -1077.6686   -311456.98 
     560    475.26783    163823.89    72.378066    72.378067     36.11043          120    17685.367    17685.937   -38177.738    2105.2236    14.991575   -943.95508    72.378066    62.681245     36.11043   -935.47801   -311455.65 
     570     477.2649    163828.41    72.378731    72.378732    36.110761          120    17058.358    16944.117   -38451.425    2759.8038    667.82078    -858.2377    72.378731     62.68182    36.110761   -1482.9834    -311463.4 
     580    475.70312    163832.33    72.379308    72.379309    36.111049          120    16537.712    16895.692   -38980.272    2877.2489    881.78229   -1708.9828    72.379308     62.68232    36.111049   -1848.9562   -311464.34 
     590    473.49418    163835.55    72.379783    72.379783    36.111286          120    16909.896    16694.201   -39274.306    2346.7479    373.20603   -1507.9991    72.379783    62.682731    36.111286   -1890.0696   -311463.29 
     600    470.01806    163838.08    72.380155    72.380156    36.111472          120    17507.793    16360.774   -39389.563     1445.303    280.17135   -42.412974    72.380155    62.683054    36.111472   -1840.3319   -311459.63 
     610    472.30932    163839.91    72.380426    72.380426    36.111607          120     16920.48    15642.306   -39435.596    620.15379    1222.5091   -589.80889    72.380426    62.683288    36.111607   -2290.9369   -311465.97 
     620    474.50108    163840.96     72.38058    72.380581    36.111684          120    16057.785    15107.482   -38874.861    589.50433    974.00008   -275.62384     72.38058    62.683422    36.111684   -2569.8648   -311473.04 
     630    473.52332     163841.2    72.380614    72.380615    36.111701          120    17066.286    16627.563   -39008.262     1221.421    1684.1953     699.9347    72.380614    62.683451    36.111701    -1771.471    -311472.7 
     640     471.5563    163840.85    72.380563    72.380564    36.111676          120    18129.369    17549.713   -38067.154    1800.4607    2241.8498    582.53487    72.380563    62.683407    36.111676   -796.02373   -311471.19 
     650    473.33332    163840.23    72.380472    72.380473     36.11163          120    17584.139    18622.987   -37678.016    1944.5483    1001.0661    578.38858    72.380472    62.683329     36.11163   -490.29676   -311475.92 
     660    468.51133    163839.47    72.380361    72.380361    36.111574          120    17752.162    17876.963   -36436.493    1459.3517    1719.2795    90.493677    72.380361    62.683232    36.111574   -269.12278   -311468.27 
     670    472.85906    163838.64    72.380238    72.380239    36.111513          120    17891.246    18498.243   -37361.436    1738.0355    1977.5951    38.970464    72.380238    62.683126    36.111513   -323.98248    -311477.8 
     680    467.75671    163837.74    72.380106    72.380106    36.111447          120    17335.198    18967.077   -36945.016    1648.4721    2139.1098   -981.27313    72.380106    62.683011    36.111447   -214.24684   -311468.01 
     690    471.32935    163836.76    72.379962    72.379962    36.111375          120    17263.563    17842.299   -37040.586    2040.9757    1302.0315   -424.14039    72.379962    62.682886    36.111375   -644.90809   -311475.26 
     700    466.86005    163835.61    72.379792    72.379793    36.111291          120    17706.084    17053.897   -37103.694    2324.4099    732.72226     282.4785    72.379792    62.682739    36.111291   -781.23797   -311465.97 
     710    472.48944    163834.27    72.379595    72.379595    36.111192          120    19086.286    18148.616   -37211.758    2893.0755    1215.9795   -14.460438    72.379595    62.682568    36.111192    7.7148508   -311476.72 
     720    471.70041    163832.97    72.379402    72.379403    36.111096          120    20446.025    18101.047    -36553.49    2469.2803    1551.6487   -1053.5346    72.379402    62.682402    36.111096    664.52728    -311473.8 
     730    472.17605    163831.88    72.379242    72.379242    36.111016          120      19551.2    17605.227   -36018.217    1814.7152     979.8943   -710.08819    72.379242    62.682263    36.111016     379.4035   -311473.82 
     740    474.45475    163830.92    72.379101    72.379101    36.110946          120    18621.753    16935.439   -37242.133    1210.4664     1329.625    -491.7859    72.379101    62.682141    36.110946   -561.64702   -311476.74 
     750    473.59257    163829.81    72.378937    72.378938    36.110864          120    17031.037     17076.04   -38940.933    1305.6586    1983.1242   -1152.1625    72.378937    62.681999    36.110864   -1611.2853   -311473.37 
     760    474.55012    163828.22    72.378704    72.378705    36.110748          120    16979.686    15758.048     -39301.8     1694.016    1544.4128   -695.49538    72.378704    62.681797    36.110748   -2188.0218   -311473.37 
     770    473.91741       163826    72.378377    72.378377    36.110585          120    17677.236    14976.548   -38377.856     1993.935    1597.9686   -1115.2279    72.378377    62.681513    36.110585   -1908.0242   -311470.46 
     780     470.9453    163823.23    72.377968    72.377969    36.110381          120    18535.048    16016.067   -37787.133    2254.8983     1447.943   -927.14083    72.377968     62.68116    36.110381   -1078.6726   -311462.23 
     790    475.67917    163820.19    72.377521    72.377521    36.110157          120    18593.883    17002.493   -36542.231      1006.28    1931.3894    10.911553    72.377521    62.680772    36.110157   -315.28521   -311468.37 
     800    475.42652    163817.09    72.377064    72.377064    36.109929          120    17439.289    17070.581   -37314.967    795.32733    927.88164   -498.76057    72.377064    62.680376    36.109929   -935.03221   -311464.55 
     810    477.06296    163813.79    72.376579    72.376579    36.109688          120    16960.983     17188.42   -36931.032    677.54552     1015.066   -578.28432    72.376579    62.679957    36.109688   -927.20999   -311465.14 
     820    477.93623    163810.27     72.37606    72.376061    36.109429          120    17160.692    17490.984   -37704.005    913.90332    1249.7763   -634.86831     72.37606    62.679508    36.109429   -1017.4428   -311463.55 
     830    479.21742    163806.52    72.375508    72.375509    36.109153          120    17954.498     17546.02   -38436.879    1595.2321    629.09932   -642.83146    72.375508    62.679029    36.109153   -978.78673   -311462.42 
     840    475.95403    163802.55    72.374923    72.374924    36.108862          120    17976.807     18000.76   -38366.232     2067.152    1374.5125   -527.37011    72.374923    62.678523    36.108862   -796.22158   -311452.86 
     850    479.23818    163798.43    72.374316    72.374317    36.108559          120    17437.805    17624.351   -37253.495    1972.5541    197.02349   -135.90355    72.374316    62.677997    36.108559   -730.44626   -311456.07 
     860     485.1195    163794.17    72.373689    72.373689    36.108246          120    16728.516        18896   -38333.894    2011.8365     584.0087   -475.63552    72.373689    62.677454    36.108246   -903.12613   -311464.13 
     870    485.12952    163789.79    72.373043    72.373044    36.107924          120    18313.156    20031.449   -37112.669    1456.7204    875.66764   -649.20051    72.373043    62.676894    36.107924    410.64543    -311461.1 
     880    482.65196    163785.63     72.37243    72.372431    36.107618          120    18975.188    19712.466   -35376.928    187.65985    1104.2993   -1138.2491     72.37243    62.676364    36.107618    1103.5752   -311453.33 
     890    484.17397    163781.88    72.371879    72.371879    36.107343          120    18615.522    18894.103   -35895.591     1151.287    1325.3839   -1495.2344    72.371879    62.675886    36.107343    538.01137   -311453.14 
     900    489.19415    163778.39    72.371364    72.371364    36.107086          120    18425.366    17377.217   -37579.401    1558.2789    311.16521   -1137.8657    72.371364     62.67544    36.107086   -592.27251   -311460.48 
     910    480.53908    163774.84    72.370842    72.370842    36.106825          120    19005.537    17760.419   -37806.556    1657.9803    1380.9949   -1327.7098    72.370842    62.674988    36.106825   -346.86676   -311441.14 
     920    484.39627    163771.25    72.370313    72.370313    36.106561          120    18220.898    18523.566   -38814.135    1121.1668    2247.8391   -1051.6206    72.370313     62.67453    36.106561   -689.89005   -311446.48 
     930    489.81948    163767.56     72.36977     72.36977     36.10629          120    18485.984     18050.16   -37183.321    613.02089    2224.0425   -695.43287     72.36977     62.67406     36.10629   -215.72578   -311454.95 
     940    481.71105    163763.89    72.369229     72.36923    36.106021          120    19429.557    18137.634   -36728.258    712.20992    668.85879    153.94394    72.369229    62.673592    36.106021    279.64445   -311437.65 
     950    487.49943     163760.4    72.368715    72.368715    36.105764          120    19055.453    19357.721   -37167.014    1785.7406   -46.702546    479.86269    72.368715    62.673146    36.105764     415.3864   -311446.97 
     960    489.47189    163757.11     72.36823     72.36823    36.105522          120    18837.784    17766.813   -36781.827    1933.6295    196.84043    151.88906     72.36823    62.672726    36.105522   -59.076426   -311449.41 
     970     488.6148     163753.9    72.367757    72.367757    36.105286          120    18910.866    17596.206   -37025.672    2386.1846    295.68515   -940.09456    72.367757    62.672316    36.105286   -172.86671   -311447.01 
     980    492.02914    163750.73     72.36729    72.367291    36.105053          120    20363.468    18467.528   -37144.711    2026.7752    129.20553    -726.8867     72.36729    62.671912    36.105053    562.09483   -311453.27 
     990    487.51669    163747.83    72.366863    72.366864     36.10484          120    20495.684    19441.911   -36223.677    1972.4834    1234.6025   -1864.1299    72.366863    62.671542     36.10484    1237.9726   -311444.31 
    1000    489.62739    163745.38    72.366502    72.366502     36.10466          120    19893.608    18735.116   -35829.523    1642.9573    1482.1951   -1764.6886    72.366502     62.67123     36.10466    933.06696   -311448.43 
    1010    491.70001    163743.31    72.366196    72.366197    36.104508          120    20037.837    18917.389   -36374.901    1359.4537    1077.1733   -1376.6212    72.366196    62.670965    36.104508    860.10845    -311452.9 
    1020    487.18912    163741.56     72.36594     72.36594     36.10438          120    20072.692    18786.398   -36536.262    1682.2551    1753.3726   -1034.8317     72.36594    62.670743     36.10438    774.27612   -311445.06 
    1030    487.32882    163740.12    72.365727    72.365727    36.104273          120     19793.46     19257.66    -36568.82    1989.7073    568.42572   -1388.1992    72.365727    62.670558    36.104273    827.43343   -311446.69 
    1040    488.76658    163738.98    72.365559    72.365559     36.10419          120    19996.402    20004.011   -36797.026    1486.9451    393.91492    -584.0989    72.365559    62.670413     36.10419    1067.7953   -311450.82 
    1050    484.48932    163738.22    72.365447    72.365448    36.104134          120    20231.463    20578.591   -36810.833    1044.3786    573.78611    205.88557    72.365447    62.670316    36.104134    1333.0737   -311443.34 
    1060     488.7344    163737.89    72.365399    72.365399     36.10411          120    20351.389    20218.196   -36546.624    962.75949    519.29935   -624.21229    72.365399    62.670274     36.10411    1340.9873   -311453.41 
    1070    482.39953    163738.02    72.365417    72.365418    36.104119          120    20613.034    19808.187   -35570.655     1238.499    470.38008   -439.86355    72.365417     62.67029    36.104119    1616.8553   -311444.02 
    1080    485.71449    163738.65    72.365511    72.365511    36.104166          120    20671.952    19789.409   -35858.075    632.16478    792.21622   -1849.7603    72.365511    62.670371    36.104166    1534.4289   -311452.44 
    1090    487.72547    163739.76    72.365674    72.365675    36.104247          120     20220.03    19605.848    -35680.82    1455.2635    923.99447   -1274.6678    72.365674    62.670513    36.104247     1381.686   -311459.11 
    1100    484.30455    163741.31    72.365902    72.365902    36.104361          120    19867.053    19617.721   -34569.205    1178.4738    677.57158   -1256.5072    72.365902     62.67071    36.104361    1638.5231    -311455.2 
    1110    487.08747    163743.31    72.366197    72.366197    36.104508          120    19474.249    19480.733   -35157.823    1006.2219    1932.2598   -1590.4086    72.366197    62.670965    36.104508    1265.7197   -311463.99 
    1120    483.38307    163745.68    72.366547    72.366547    36.104682          120    18593.356    19944.055    -35876.58    497.01432    2401.3433   -1453.6378    72.366547    62.671268    36.104682    886.94351   -311459.97 
    1130    482.64521    163748.29    72.366931    72.366932    36.104874          120    18770.472    19646.645   -36966.029    692.65602    1638.7585   -1479.9172    72.366931    62.671601    36.104874    483.69611   -311461.95 
    1140    485.36872    163750.97    72.367325    72.367326    36.105071          120    18294.827    18159.019   -38382.595    757.53154    1752.6329   -1010.3254    72.367325    62.671943    36.105071    -642.9163   -311470.59 
    1150    477.41656     163753.4    72.367683    72.367683    36.105249          120    18246.107     16962.35   -38631.511    1106.1396     468.8874   -1498.7096    72.367683    62.672252    36.105249    -1141.018   -311458.75 
    1160    480.69408    163755.39    72.367976    72.367977    36.105396          120    18561.382    17199.255   -40170.607     1747.844    533.87692   -1046.0931    72.367976    62.672506    36.105396   -1469.9898   -311468.13 
    1170    477.81076    163756.88    72.368196    72.368197    36.105505          120    18215.057     17943.71    -39110.26    1247.8255    729.32583   -715.34115    72.368196    62.672697    36.105505   -983.83102   -311466.29 
    1180    482.12896    163758.02    72.368365    72.368365    36.105589          120    17507.749    18060.355   -36504.256    756.37215   -176.92811   -541.08804    72.368365    62.672843    36.105589   -312.05039    -311478.4 
    1190    482.70474    163759.06    72.368517    72.368517    36.105665          120    18492.546     18645.41    -35243.21    1761.9836    -45.17404   -336.89993    72.368517    62.672975    36.105665    631.58198   -311482.53 
    1200    475.05787    163760.27    72.368695    72.368696    36.105754          120    19122.352    18802.128    -34706.26    2084.9267     684.1643   -127.48628    72.368695    62.673129    36.105754    1072.7401   -311471.11 
    1210     480.3141    163761.76    72.368915    72.368916    36.105864          120    19626.026    18393.768   -36273.814     1535.346     1064.397   -979.25158    72.368915     62.67332    36.105864    581.99326   -311484.56 
    1220    472.99824    163763.41    72.369158    72.369158    36.105985          120    18038.853    18662.328   -36605.312    1916.1068    898.03422   -751.11308    72.369158     62.67353    36.105985     31.95629   -311473.48 
    1230    473.50959    163765.04    72.369398    72.369398    36.106105          120    17861.793    19474.884   -38117.847    1690.8085    1153.5507   -855.53758    72.369398    62.673737    36.106105   -260.39002   -311477.01 
    1240    476.45365    163766.56    72.369622    72.369623    36.106217          120    18745.183    19580.972   -38310.377    1583.3489    1030.8386   -740.51784    72.369622    62.673932    36.106217    5.2592236   -311485.36 
    1250    475.27452    163768.05    72.369841    72.369841    36.106326          120    19274.764    19723.803   -37193.452     1472.935    961.62902   -593.55768    72.369841    62.674121    36.106326    601.70499   -311485.33 
    1260    474.31387    163769.69    72.370083    72.370084    36.106447          120    19817.879    20120.611   -35229.238    1115.3227    1218.9243   -463.17482    72.370083    62.674331    36.106447    1569.7504   -311485.77 
    1270    471.66141    163771.77    72.370389     72.37039      36.1066          120    20393.464    19526.225    -34607.58    1021.6339    830.01493   -471.52686    72.370389    62.674596      36.1066     1770.703   -311482.27 
    1280    471.63882    163774.38    72.370773    72.370774    36.106791          120     20433.14    18849.991   -34014.979    1427.0195     667.3452   -886.82488    72.370773    62.674929    36.106791    1756.0507   -311484.64 
    1290    472.77038    163777.45    72.371226    72.371226    36.107017          120    19125.422    18301.958   -35851.803    1241.3189    1222.0511   -906.38886    72.371226    62.675321    36.107017     525.1925   -311488.72 
    1300    468.12091    163780.66    72.371699    72.371699    36.107253          120    19666.057    18748.605    -37660.24    923.05215    684.69708   -1044.9868    72.371699     62.67573    36.107253    251.47405   -311480.65 
    1310     476.6399    163783.89    72.372175    72.372176     36.10749          120    18389.286    19981.357   -37219.436    1041.6368    733.41178   -248.44495    72.372175    62.676143     36.10749    383.73563    -311497.8 
    1320    468.65064    163787.18    72.372659    72.372659    36.107732          120    18241.141     20200.75   -37568.552    1429.0358    1504.6193   -915.85377    72.372659    62.676562    36.107732    291.11306    -311482.4 
    1330    473.56677    163790.49    72.373146    72.373147    36.107975          120    18561.994    19530.577   -36888.654    1601.2436    1617.9834   -1862.8875    72.373146    62.676984    36.107975    401.30585   -311492.38 
    1340    469.23511    163793.85    72.373642    72.373643    36.108222          120    19772.508    18734.566   -36534.869    1397.2427    1284.5541   -686.84562    72.373642    62.677413    36.108222    657.40161   -311484.06 
    1350    475.10543    163797.34    72.374156    72.374156    36.108479          120    20169.489    18284.935   -36189.925    1261.3788     1038.098   -178.88965    72.374156    62.677858    36.108479    754.83331   -311494.94 
    1360    470.46377       163801    72.374695    72.374695    36.108747          120    19982.577    19103.834   -36074.567    1057.0219    702.43707   -142.39145    72.374695    62.678325    36.108747    1003.9481   -311485.08 
    1370     474.0978    163804.89    72.375267    72.375268    36.109033          120    19765.556    19455.341   -35630.821    562.39609    1100.6132   -178.56115    72.375267    62.678821    36.109033    1196.6921   -311490.58 
    1380    477.53701     163809.1    72.375887    72.375887    36.109342          120    20263.273    19811.867   -35165.671    615.41628    2069.0861    -1184.192    72.375887    62.679357    36.109342    1636.4898   -311496.02 
    1390    473.70922    163813.69    72.376564    72.376565     36.10968          120    20278.815    19961.239   -37377.141    1062.9996    2379.1857   -1878.0314    72.376564    62.679944     36.10968    954.30441   -311487.41 
    1400    475.40077    163818.51    72.377273    72.377274    36.110034          120    20073.532    19866.672   -38033.693    769.29989    2090.0982   -560.32581    72.377273    62.680558    36.110034    635.50399   -311488.61 
    1410    473.98552    163823.42    72.377997    72.377997    36.110395          120    19117.682     19504.69   -38406.496    811.62368    1476.7933   -554.41363    72.377997    62.681185    36.110395    71.958639   -311484.62 
    1420    474.22568    163828.28    72.378712    72.378712    36.110752          120    18658.229    19173.427   -37910.671    1003.4167    1317.0686   -987.40997    72.378712    62.681804    36.110752   -26.338469   -311483.18 
    1430    473.18719    163833.03    72.379412    72.379412    36.111101          120    19368.938    19218.969   -37259.362    650.59191     729.3427     -960.648    72.379412     62.68241    36.111101     442.8484   -311479.02 
    1440    477.73529     163837.8    72.380114    72.380115    36.111451          120      19197.1    19321.605     -36235.1    804.47342    392.89604   -384.17572    72.380114    62.683018    36.111451    761.20148   -311486.05 
    1450    474.43252    163842.73     72.38084    72.380841    36.111814          120    19313.773     19411.43    -34829.63    338.50227    -303.8859    -480.3614     72.38084    62.683647    36.111814    1298.5241   -311477.04 
    1460    479.00748    163847.93    72.381606    72.381606    36.112196          120    18696.408    18756.404   -35720.126     162.8815    1039.8827   -1147.3306    72.381606     62.68431    36.112196    577.56195    -311483.4 
    1470    480.06786    163853.26     72.38239    72.382391    36.112587          120    20035.517     18654.49   -35110.857     745.0469    1548.2542    -585.2886     72.38239    62.684989    36.112587    1193.0501   -311481.87 
    1480    480.27989    163858.82     72.38321    72.383211    36.112996          120    20439.631    19442.092   -35880.101    1573.2749    1492.1736   -1132.5092     72.38321    62.685699    36.112996    1333.8737   -311479.47 
    1490     481.5964    163864.68    72.384072    72.384073    36.113426          120    19631.179    18812.421   -35570.649    760.01105    1178.2851   -539.52678    72.384072    62.686446    36.113426    957.65045   -311479.44 
    1500    480.50008     163870.7    72.384959     72.38496    36.113869          120    18605.919    19270.752   -36054.756    614.62693    1656.7813   -569.08579    72.384959    62.687214    36.113869    607.30508   -311474.38 
    1510    481.91238    163876.77    72.385853    72.385854    36.114315          120    18397.703    18605.162   -36390.276    445.49774    1408.3085   -136.24294    72.385853    62.687988    36.114315    204.19641   -311474.79 
    1520    482.71965     163882.8     72.38674     72.38674    36.114757          120    17785.312    19177.746   -37197.757   -46.759712    1959.1884    70.386946     72.38674    62.688756    36.114757   -78.232812   -311473.93 
    1530    479.63889    163888.68    72.387605    72.387606    36.115189          120    18310.538     17970.24   -36870.031    986.54287    1894.1159   -730.71078    72.387605    62.689506    36.115189   -196.41774   -311465.61 
    1540    481.54305    163894.35    72.388441    72.388441    36.115606          120    17502.914    17756.603   -36688.221    1648.7961    1248.3231   -421.85352    72.388441    62.690229    36.115606   -476.23456   -311467.13 
    1550    485.32756    163899.75    72.389236    72.389237    36.116002          120    17114.346    18187.864   -37787.023    2161.4463    179.06606   -991.01236    72.389236    62.690918    36.116002   -828.27118   -311471.96 
    1560    483.46541     163904.8    72.389979    72.389979    36.116373          120    17552.968    18040.327   -37911.068    2008.3362    548.70446   -1739.1742    72.389979    62.691561    36.116373     -772.591   -311466.79 
    1570    485.67466     163909.5    72.390671    72.390672    36.116718          120    17891.458    18671.579   -36941.345    732.73871    525.35601   -697.74765    72.390671    62.692161    36.116718   -126.10254    -311469.5 
    1580    488.44823       163914    72.391334    72.391334    36.117049          120    16893.912    18186.903   -37880.175    337.11413    255.99832    -479.4472    72.391334    62.692735    36.117049   -933.11979   -311472.87 
    1590     487.8505    163918.16    72.391946    72.391947    36.117355          120    17820.504    18512.784   -38230.118    927.57047    1353.8168   -853.97189    72.391946    62.693265    36.117355   -632.27669   -311469.94 
    1600    484.72139    163922.04    72.392517    72.392517    36.117639          120    19000.233    18201.674   -37314.514    1999.8546    1299.3102   -1130.6036    72.392517    62.693759    36.117639   -37.535662   -311462.52 
    1610    486.93477    163925.78    72.393068    72.393068    36.117914          120    18503.975     18099.11   -38134.633    2022.8067    845.86917   -629.33288    72.393068    62.694236    36.117914   -510.51591   -311466.42 
    1620    486.96846     163929.3    72.393586    72.393586    36.118173          120    18124.382      17300.3   -37298.398     1430.948    1129.9949   -601.54756    72.393586    62.694685    36.118173    -624.5719   -311465.81 
    1630    485.00373    163932.55    72.394065    72.394065    36.118412          120    17503.928    18247.602   -36759.388    881.98523    509.71683   -776.43576    72.394065      62.6951    36.118412   -335.95251   -311461.49 
    1640    489.36231    163935.63    72.394518    72.394518    36.118638          120    17443.717    19639.247   -37778.921    624.94036    920.05563    94.808765    72.394518    62.695492    36.118638   -231.98532   -311469.72 
    1650    486.68426    163938.57     72.39495    72.394951    36.118853          120    18555.541    19137.117   -37947.617    14.072067    799.38697   -704.65609     72.39495    62.695867    36.118853   -84.986216   -311464.34 
    1660    485.84759    163941.42     72.39537     72.39537    36.119063          120    17805.841    18324.724   -36199.441    542.66803    742.48507   -1050.1069     72.39537     62.69623    36.119063   -22.958839   -311463.44 
    1670    483.71896    163944.21     72.39578    72.395781    36.119267          120    17343.218    19241.577   -36472.493    915.04863    188.94235   -1836.0948     72.39578    62.696586    36.119267    37.433936   -311460.29 
    1680    486.90671    163946.95    72.396184    72.396185    36.119469          120    18191.605    19202.188   -37661.658    757.78063    101.36811   -2132.1529    72.396184    62.696935    36.119469   -89.288159   -311467.57 
    1690     488.3801     163949.6    72.396574    72.396575    36.119664          120    17774.243    17937.816   -37628.361    1074.2648    538.20691   -1349.6304    72.396574    62.697273    36.119664   -638.76719   -311471.36 
    1700     484.4156       163952    72.396928    72.396928     36.11984          120     17430.34    17505.151   -37398.434    295.54763    930.39817   -686.64463    72.396928    62.697579     36.11984   -820.98107   -311464.79 
    1710      494.553    163954.09    72.397234    72.397235    36.119993          120    16851.987    17265.001   -37189.999    215.54212    1369.0879   -337.00418    72.397234    62.697845    36.119993   -1024.3369   -311485.65 
    1720    486.88393    163955.81    72.397488    72.397489     36.12012          120    17435.763    17484.124   -37980.373    762.77762    1524.2871   -158.80627    72.397488    62.698065     36.12012   -1020.1621   -311472.85 
    1730    484.44353    163957.19    72.397691    72.397692    36.120221          120    18027.622    18175.459   -37534.159    1184.4727    1642.8484    464.59549    72.397691     62.69824    36.120221   -443.69276    -311470.5 
    1740    481.77318    163958.39    72.397868    72.397868    36.120309          120    18140.898    18607.093   -35950.623    1158.2156    2092.8423   -329.10214    72.397868    62.698393    36.120309    265.78956   -311467.67 
    1750    484.38534    163959.63     72.39805    72.398051      36.1204          120    18955.891    18832.352   -36040.598    1706.9598    2343.3267   -448.28357     72.39805    62.698551      36.1204    582.54823   -311475.55 
    1760    478.32968    163961.03    72.398256    72.398257    36.120503          120    19149.123    19654.039   -36241.639    1524.7839    1690.6398   -735.17722    72.398256     62.69873    36.120503    853.84126   -311465.96 
    1770    483.39274    163962.65    72.398495    72.398495    36.120622          120    17962.306    19702.184   -36683.389     385.0332    2236.4539   -1677.0797    72.398495    62.698936    36.120622    327.03359    -311478.4 
    1780    479.53401    163964.36    72.398746    72.398747    36.120747          120    17951.904    18989.343   -36179.909    327.42274    1926.3103   -1698.4384    72.398746    62.699154    36.120747     253.7792   -311473.46 
    1790    480.13629    163966.12    72.399006    72.399006    36.120877          120    18652.187    18707.635    -36367.33    1036.7207    1349.2996   -1136.5739    72.399006    62.699379    36.120877    330.83053   -311477.51 
    1800    484.02076    163967.93    72.399272    72.399273     36.12101          120    17577.695    18890.477   -37459.576    977.82491    890.46955   -1159.9634    72.399272     62.69961     36.12101   -330.46799    -311487.9 
    1810    480.04013    163969.62    72.399521    72.399521    36.121134          120    18000.616    18689.626   -37675.897    908.93348    1218.6803   -1071.2414    72.399521    62.699825    36.121134   -328.55182   -311483.15 
    1820    479.08273    163971.18     72.39975    72.399751    36.121248          120     18337.53    19067.402    -36983.42    959.24961    961.16952   -914.84777     72.39975    62.700024    36.121248    140.50404   -311484.24 
    1830    481.57765    163972.76    72.399983    72.399983    36.121364          120    18601.553    19778.194   -36849.327    107.50002    708.66284   -292.94028    72.399983    62.700225    36.121364    510.14028    -311492.3 
    1840    478.22749    163974.45    72.400232    72.400233    36.121489          120    18725.241    19344.786   -37314.331    80.590007    1746.6021   -757.10637    72.400232    62.700441    36.121489     251.8988   -311488.36 
    1850    473.47943    163976.17    72.400485    72.400485    36.121615          120     17654.62    18446.328   -37454.358    1232.0707    574.52861   -841.83294    72.400485     62.70066    36.121615   -451.13696   -311481.19 
    1860    473.42588    163977.72    72.400712    72.400713    36.121728          120    17396.405    18285.048   -37783.311    1664.8781   -70.639459   -990.40035    72.400712    62.700857    36.121728   -700.61916   -311483.83 
    1870    474.88228    163979.01    72.400903    72.400904    36.121823          120    18226.502    17805.543   -37685.583    715.16702     274.8329   -579.34122    72.400903    62.701022    36.121823    -551.1791   -311488.73 
    1880    477.98995    163980.11    72.401064    72.401065    36.121904          120    17908.912    17924.095   -37294.292    590.30159    1095.0635   -1147.0805    72.401064    62.701161    36.121904   -487.09518   -311496.89 
    1890    471.85129    163981.03    72.401201    72.401201    36.121972          120     17709.93    18858.653   -37066.058    225.31592    1833.3514   -1397.8291    72.401201     62.70128    36.121972   -165.82528    -311486.8 
    1900     476.2531    163981.87    72.401324    72.401324    36.122033          120    17300.208    18525.896   -36198.236    414.10974    2126.6598   -1026.8322    72.401324    62.701386    36.122033   -124.04407   -311496.75 
    1910    479.75612    163982.65    72.401438    72.401439     36.12209          120    16524.603    18616.434    -35817.35    895.62348    2188.7428   -1585.5153    72.401438    62.701485     36.12209   -225.43803   -311505.15 
    1920    471.66387    163983.32    72.401537    72.401538     36.12214          120    16501.364    17254.856   -36754.365    1386.9841    1299.3905   -923.91828    72.401537    62.701571     36.12214   -999.38156   -311490.49 
    1930     472.5437    163983.67    72.401588    72.401589    36.122165          120    16115.289    17274.797   -37409.549    610.66696     1914.161   -1633.1303    72.401588    62.701615    36.122165   -1339.8207   -311493.21 
    1940    473.52984    163983.59    72.401577    72.401577    36.122159          120    16992.268    18320.223   -37716.033     271.0507    1478.3056   -778.57071    72.401577    62.701605    36.122159   -801.18054   -311496.71 
    1950    474.30437    163983.24    72.401525    72.401526    36.122134          120    17198.541     18573.91   -37609.685    1149.1574    227.42815   -1715.8115    72.401525    62.701561    36.122134   -612.41163   -311498.56 
    1960    472.15415     163982.7    72.401445    72.401446    36.122094          120    17664.175    18642.806   -38215.107    1043.4256    163.00739   -2623.4185    72.401445    62.701491    36.122094   -636.04199   -311494.67 
    1970    474.07494    163981.97    72.401338    72.401339     36.12204          120    18357.029    18972.395   -37799.249    799.21245    246.83852   -2131.4477    72.401338    62.701399     36.12204   -156.60812   -311498.18 
    1980    471.28101     163981.2    72.401225    72.401225    36.121984          120    18298.679    18905.998   -36482.999    1162.1134    45.956163   -2051.2265    72.401225    62.701301    36.121984    240.55944    -311492.4 
    1990    471.82727    163980.51    72.401123    72.401124    36.121933          120    18131.102    17879.448    -35962.98    1118.0434    1157.7528   -1347.5155    72.401123    62.701213    36.121933    15.856252   -311493.05 
    2000    473.55511    163979.83    72.401024    72.401024    36.121884          120    17504.395    17606.032   -37256.172    1235.1105    2105.0225   -804.80742    72.401024    62.701127    36.121884   -715.24827   -311496.34 
    2010    473.30378    163978.95    72.400894    72.400895    36.121819          120    17248.709    17521.005   -37192.207    1582.5979    2079.3066    -878.3017    72.400894    62.701014    36.121819   -807.49776   -311494.83 
    2020    472.61719    163977.84     72.40073    72.400731    36.121737          120    16714.808    18332.945   -36377.173    1463.6047    2380.9146   -449.87043     72.40073    62.700872    36.121737   -443.13968   -311492.39 
    2030    474.35444    163976.61    72.400549     72.40055    36.121647          120    17580.522    18050.792   -36333.387    1919.7915    2177.8179   -493.11946    72.400549    62.700716    36.121647   -234.02411   -311494.12 
    2040     477.6295    163975.33    72.400362    72.400362    36.121553          120    17862.977    17926.335    -36076.99    1837.4227    1459.4601   -864.00914    72.400362    62.700553    36.121553   -95.892479   -311498.66 
    2050    472.84871    163974.05    72.400173    72.400174    36.121459          120    18064.244    19193.969   -36666.567    1873.4548    1247.5153   -1352.8553    72.400173     62.70039    36.121459    197.21521   -311487.06 
    2060    472.33813    163972.85    72.399996    72.399996    36.121371          120    18659.152    19708.523   -37805.918    2138.4563    751.69188    -1152.476    72.399996    62.700236    36.121371    187.25246   -311484.45 
    2070    479.88213    163971.71    72.399829    72.399829    36.121287          120    17958.851    19547.885   -38022.317    1354.7797    1324.8154   -316.13522    72.399829    62.700092    36.121287   -171.86042    -311496.1 
    2080    476.12529    163970.54    72.399656    72.399657    36.121201          120     16835.23    19521.095   -37595.498    1071.0754    944.37191   -413.99295    72.399656    62.699942    36.121201   -413.05749    -311486.7 
    2090    475.55581    163969.26    72.399467    72.399468    36.121107          120     16427.19    19188.851   -37883.819    1839.4426    774.97816    217.89377    72.399467    62.699778    36.121107   -755.92599   -311483.24 
    2100    481.44136    163967.76    72.399247    72.399247    36.120997          120    17126.873    18759.706    -38244.55    1488.8976    1648.5245   -325.57216    72.399247    62.699587    36.120997   -785.99043   -311491.33 
    2110    478.89304    163966.06    72.398997    72.398998    36.120873          120    18322.877     18488.51   -36882.257    611.87169    1850.6015   -1429.4893    72.398997    62.699372    36.120873    -23.62341    -311483.6 
    2120    482.45429    163964.41    72.398753    72.398754    36.120751          120    19169.429    19424.383   -35794.517    214.85498     1821.726   -2383.5601    72.398753     62.69916    36.120751    933.09829   -311487.91 
    2130    481.42435    163963.07    72.398557    72.398557    36.120653          120    19059.064    20130.825   -35374.202    950.62062    2208.5654   -1692.5456    72.398557     62.69899    36.120653    1271.8958   -311483.22 
    2140    480.90131    163962.13    72.398418    72.398419    36.120584          120    17512.758    19698.276   -36622.775    904.88158    2372.9262   -1760.2883    72.398418     62.69887    36.120584    196.08633    -311480.3 
    2150    481.72761    163961.31    72.398297    72.398298    36.120523          120    18094.368     19207.06   -36122.353    808.10025    2488.9846   -1485.2238    72.398297    62.698765    36.120523    393.02483   -311478.84 
    2160    483.08193    163960.63    72.398197    72.398197    36.120473          120    19776.243    17909.845   -36130.334    221.07172    2411.4709    -1133.654    72.398197    62.698678    36.120473    518.58466   -311478.68 
    2170    480.87255    163960.12    72.398122    72.398123    36.120436          120    20697.828    18170.994     -36934.8      310.767    2209.5624   -544.73946    72.398122    62.698614    36.120436    644.67388   -311472.49 
    2180    487.23137    163959.85    72.398082    72.398083    36.120416          120    20792.554    18637.279   -36220.668    1424.5805    1233.2783    22.734949    72.398082    62.698579    36.120416    1069.7215   -311482.47 
    2190    485.55482     163959.9     72.39809     72.39809     36.12042          120    19850.587    17235.032   -35607.947    1522.2694    1248.8703    88.160582     72.39809    62.698585     36.12042    492.55742   -311476.39 
    2200      482.739    163960.11    72.398121    72.398122    36.120435          120    19199.053    17241.351   -36006.256     949.2244    1165.7125   -736.96628    72.398121    62.698613    36.120435    144.71605    -311469.3 
    2210     486.4711     163960.4    72.398163    72.398164    36.120456          120     19028.74    18069.679   -35075.301    750.33588    754.43978   -356.56377    72.398163    62.698649    36.120456     674.3726   -311474.72 
    2220    485.59221    163960.89    72.398236    72.398237    36.120493          120    19204.776    18907.529   -35107.544    1458.1423    1324.3006    -1712.028    72.398236    62.698713    36.120493     1001.587    -311471.9 
    2230    487.79483     163961.7    72.398355    72.398355    36.120552          120    19023.101    18167.213   -35336.267    1451.5065    1754.8522   -1569.7973    72.398355    62.698815    36.120552     618.0157    -311474.6 
    2240    487.10747     163962.7    72.398502    72.398502    36.120625          120    18682.316    18115.447   -35924.165    1447.9607    1651.9118   -1509.5361    72.398502    62.698942    36.120625     291.1994   -311471.96 
    2250     488.9424    163963.78    72.398662    72.398662    36.120705          120     19287.86    18188.077   -36067.434    2021.3845     1378.654   -2230.0805    72.398662    62.699081    36.120705    469.50132   -311474.68 
    2260    486.67139    163964.99     72.39884     72.39884    36.120794          120    18898.879    18428.237   -36541.515    2399.7334    864.87458   -806.96671     72.39884    62.699235    36.120794    261.86705   -311470.43 
[...]
   99200    476.02154    164532.46    72.482266    72.482266    36.162416          120    18753.138    19848.189   -37427.139    1893.1337    1800.7931    205.32559    72.482266    62.771484    36.162416    391.39594   -311581.72 
   99210     477.6168    164530.28    72.481945    72.481946    36.162256          120    18399.378    19643.974   -38045.418    1659.3215    886.79822   -285.63248    72.481945    62.771206    36.162256  -0.68877134   -311584.58 
   99220    475.90034    164528.12    72.481628    72.481629    36.162098          120    19458.875     19173.62   -38762.322    1353.9978    770.16123   -1585.0364    72.481628    62.770932    36.162098   -43.275603   -311580.35 
   99230    478.89601    164525.98    72.481314    72.481315    36.161942          120    20329.825    19292.188   -38017.725    1530.5047    2014.3121   -1599.7964    72.481314     62.77066    36.161942    534.76287   -311585.24 
   99240    475.37324    164524.02    72.481026    72.481026    36.161798          120     19748.79    19871.213   -37396.864    1793.9729    1972.9231   -762.97857    72.481026     62.77041    36.161798    741.04647   -311577.99 
   99250    479.73184    164522.31    72.480775    72.480776    36.161672          120    19885.074    19885.999   -36872.452    1965.3829    1992.8707    301.94616    72.480775    62.770193    36.161672    966.20712      -311585 
   99260    475.96228    164520.92    72.480571    72.480571    36.161571          120    20052.658    19127.283   -36684.469    1434.7639    1649.2035   -260.57287    72.480571    62.770016    36.161571    831.82406    -311576.5 
   99270    476.75026    164519.82     72.48041     72.48041     36.16149          120    19889.502    20072.733   -36375.973    1550.6394     2909.952   -970.51871     72.48041    62.769877     36.16149    1195.4208   -311576.75 
   99280     480.7241    164519.15    72.480311    72.480311    36.161441          120    20118.611    20795.157   -33639.789     1797.792    3002.7875   -770.91417    72.480311    62.769791    36.161441    2424.6599   -311582.21 
   99290    477.44794    164519.25    72.480326    72.480326    36.161448          120    20504.394    20584.889   -32397.273    1652.4879    3225.2767    -302.6487    72.480326    62.769804    36.161448    2897.3368   -311573.49 
   99300    482.22873    164520.25    72.480473    72.480473    36.161522          120     19729.63    20005.597    -34269.51     1742.112    2431.8971   -514.88655    72.480473    62.769931    36.161522    1821.9057   -311580.43 
   99310    486.05478    164521.85    72.480708    72.480709    36.161639          120     18955.57    20303.834   -36914.955    1425.6036    645.85086   -1302.0575    72.480708    62.770135    36.161639    781.48282    -311586.7 
   99320    477.88997    164523.71     72.48098    72.480981    36.161775          120    17532.304    19716.632   -38422.983    2259.3054    808.02173   -1150.1699     72.48098    62.770371    36.161775   -391.34892   -311569.28 
   99330    481.17775    164525.46    72.481237    72.481237    36.161903          120    16462.383    20205.001    -38858.99    2219.0068    929.67523    -674.0164    72.481237    62.770593    36.161903    -730.5353   -311574.13 
   99340    480.34445    164526.97     72.48146     72.48146    36.162014          120    16947.283    20208.941   -38162.549    1802.1999    1725.1769    -219.3014     72.48146    62.770786    36.162014   -335.44195   -311571.49 
   99350    482.85991     164528.4    72.481669     72.48167    36.162119          120    19040.056    20312.949   -37169.448    2094.5979    2192.6383    576.51838    72.481669    62.770968    36.162119    727.85221   -311575.29 
   99360    481.21248    164530.04     72.48191     72.48191    36.162239          120    20083.164    20334.043   -37846.762    1532.8109    2235.7961    1131.3471     72.48191    62.771176    36.162239    856.81494   -311572.04 
   99370    484.31958    164531.91    72.482185    72.482186    36.162376          120    19187.995    18930.203   -37447.327    1484.9534    3559.6382    429.92804    72.482185    62.771414    36.162376    223.62398   -311577.62 
   99380    479.91332    164533.87    72.482473    72.482473    36.162519          120    18214.507    18886.407   -36424.651    1521.8974    2808.5345    240.07375    72.482473    62.771663    36.162519    225.42116   -311568.61 
   99390    480.93338    164535.88    72.482767    72.482768    36.162666          120        17220    19511.277   -36664.065    1301.2664    2286.3298    172.93573    72.482767    62.771918    36.162666    22.404152   -311570.05 
   99400     481.8684    164537.91    72.483065    72.483066    36.162815          120    18383.713    20508.622   -37197.383    1178.8309    2125.2407   -704.54918    72.483065    62.772176    36.162815    564.98385   -311571.39 
   99410    487.36638     164540.1    72.483386    72.483387    36.162975          120    18962.165    20431.942   -37276.815      1886.92    1241.5493   -474.97674    72.483386    62.772455    36.162975    705.76381   -311582.58 
   99420    476.59841    164542.49    72.483739    72.483739    36.163151          120    17886.585    20543.761   -37522.308    2449.6682    638.13274   -684.71849    72.483739     62.77276    36.163151      302.679   -311562.28 
   99430    484.20154    164545.03    72.484111    72.484111    36.163337          120    19106.776    19965.557   -36961.214     2213.135    1310.8346   -102.45651    72.484111    62.773082    36.163337    703.70641   -311576.64 
   99440    483.68857    164547.77    72.484513    72.484514    36.163538          120    18807.198    20281.273   -36972.057    1566.4619    2351.7255    526.00187    72.484513    62.773431    36.163538    705.47128   -311575.56 
   99450    479.58503    164550.72    72.484947    72.484947    36.163754          120    18678.388    19255.977   -38792.523    1357.7674    2321.4467    934.76545    72.484947    62.773806    36.163754   -286.05265   -311568.28 
   99460    480.30898    164553.58    72.485367    72.485367    36.163963          120    18331.956    18198.928   -39851.869    872.00807    1777.7437    803.66086    72.485367     62.77417    36.163963   -1106.9952    -311569.7 
   99470    484.20296    164556.09    72.485735    72.485736    36.164147          120    17101.977     18961.92   -39646.675    591.92378    1481.0421     47.55042    72.485735    62.774489    36.164147   -1194.2594   -311577.42 
   99480     480.0587    164558.23    72.486049    72.486049    36.164304          120    16760.579    19182.451   -37923.404    754.07961    1374.1876   -631.69528    72.486049     62.77476    36.164304   -660.12479   -311570.35 
   99490    482.78259    164560.14    72.486331    72.486331    36.164444          120    17284.265    20181.289   -37202.825    1221.9597    1610.6114   -738.33737    72.486331    62.775004    36.164444    87.576124   -311575.64 
   99500    482.12074    164562.08    72.486614    72.486615    36.164586          120    16657.409    20540.441   -36160.899    1198.4976    1882.1568   -259.44171    72.486614     62.77525    36.164586    345.65047   -311574.33 
   99510    481.64304    164564.09     72.48691     72.48691    36.164733          120    16836.161    20185.409    -37464.84    1390.8791    1222.0733   -622.83914     72.48691    62.775506    36.164733   -147.75688   -311574.07 
   99520    485.73744    164566.02    72.487194    72.487194    36.164875          120     15881.49    18914.099   -37593.666    946.41284    1072.2347   -358.45227    72.487194    62.775752    36.164875   -932.69249    -311582.9 
   99530    480.76618    164567.68    72.487436    72.487437    36.164996          120    16285.853    18908.081   -37315.159    894.59167    408.78837    -460.2593    72.487436    62.775962    36.164996   -707.07513   -311573.89 
   99540    480.08508    164569.11    72.487647    72.487647    36.165101          120    17613.035     19437.81   -35992.246    491.17315    1442.6382    10.485909    72.487647    62.776144    36.165101    352.86623    -311573.1 
   99550    479.07802    164570.58    72.487863    72.487864    36.165209          120    17179.864    19495.848   -36637.426    1068.7026    1849.6728    -103.2992    72.487863    62.776332    36.165209    12.761979      -311572 
   99560    481.48879     164572.1    72.488086    72.488086     36.16532          120    18156.362    19983.496   -36524.792    1491.4657     1931.492    48.178487    72.488086    62.776524     36.16532     538.3555   -311577.81 
   99570    479.99699    164573.76     72.48833    72.488331    36.165442          120    18761.558    19412.708   -37223.109    2280.1921    2887.2171    511.94377     72.48833    62.776736    36.165442    317.05241   -311576.08 
   99580    479.57503    164575.54    72.488591    72.488592    36.165572          120    18959.127     18981.17   -37571.885    2009.9847    2701.7784   -117.56821    72.488591    62.776962    36.165572    122.80391   -311575.72 
   99590    480.54805    164577.38    72.488862    72.488862    36.165707          120     19073.29    18839.905   -36912.756    2213.3262    2924.0064    -891.3211    72.488862    62.777196    36.165707    333.47986    -311577.9 
   99600    479.15564    164579.31    72.489145    72.489145    36.165848          120    18709.021    19355.379   -37008.648    2357.1977    2874.9204   -772.96335    72.489145    62.777441    36.165848    351.91694   -311576.43 
   99610    481.16667    164581.36    72.489445    72.489446    36.165998          120    19328.042    19862.607   -36594.889    1585.5326    1987.5709   -280.31244    72.489445    62.777702    36.165998    865.25326    -311580.7 
   99620    480.31591    164583.64    72.489779     72.48978    36.166165          120    18398.376    18789.045   -37283.603     1129.255    1556.3501      319.857    72.489779    62.777991    36.166165   -32.060482   -311580.07 
   99630    477.08673    164585.91    72.490114    72.490114    36.166332          120    16941.933    18225.313   -37745.259    983.28923    1143.7764   -584.45162    72.490114    62.778281    36.166332   -859.33772   -311574.93 
   99640    476.41117    164587.93     72.49041     72.49041    36.166479          120    16663.373    18715.789   -38078.714    1165.6157    1540.0633   -931.85964     72.49041    62.778537    36.166479   -899.85063   -311573.99 
   99650    481.04578    164589.62    72.490659    72.490659    36.166604          120    16940.002    18235.571   -39095.644    1695.6396    1832.2595   -201.42884    72.490659    62.778753    36.166604   -1306.6905   -311583.11 
   99660    477.90029    164590.92    72.490848    72.490849    36.166698          120    16674.047    19012.528   -38916.306    2388.1763    1806.2324    456.14135    72.490848    62.778917    36.166698   -1076.5771   -311577.39 
   99670    478.81077    164591.83    72.490983    72.490983    36.166765          120     16485.55    19629.336   -38717.162    1952.6824    1754.8844   -388.42714    72.490983    62.779033    36.166765   -867.42539   -311579.72 
   99680    479.22266    164592.47    72.491076    72.491077    36.166812          120    17308.298     19897.71   -37524.329    975.87066    1657.0338   -1360.7687    72.491076    62.779114    36.166812   -106.10731   -311580.72 
   99690     476.7621    164593.05    72.491162    72.491162    36.166854          120    18525.995    19572.264   -37035.039    749.61467    1506.6152   -703.20015    72.491162    62.779188    36.166854    354.40682   -311575.86 
   99700    478.79145    164593.76    72.491265    72.491266    36.166906          120    19971.635    18999.773   -36185.138    1622.8968    1550.5962   -922.25349    72.491265    62.779278    36.166906    928.75653   -311580.44 
   99710    478.29037    164594.75    72.491411    72.491412    36.166979          120    20355.359    19389.592   -36500.183     1954.436    1596.4253   -533.94214    72.491411    62.779404    36.166979    1081.5892   -311579.74 
   99720    480.08697    164596.07    72.491605    72.491606    36.167076          120    18711.215    20293.245   -37570.332    2103.4259    1497.6537   -1423.5397    72.491605    62.779572    36.167076    478.04253   -311583.25 
   99730    478.73846    164597.58    72.491826    72.491827    36.167186          120    17774.274    20957.075    -37218.54    1955.5389    2174.0624   -1720.7477    72.491826    62.779764    36.167186    504.26946   -311580.62 
   99740    480.87158    164599.22    72.492067    72.492068    36.167306          120    17683.579    20168.764   -38165.441    1509.3272    1391.6506   -547.91728    72.492067    62.779973    36.167306   -104.36608   -311585.01 
   99750     479.3191    164600.86    72.492307    72.492308    36.167426          120    18037.432    19058.139   -37623.314    1943.5164    2293.1069    391.86656    72.492307     62.78018    36.167426   -175.91442   -311582.17 
   99760     480.1147    164602.44    72.492539     72.49254    36.167542          120    19003.671    19310.456   -38364.167    1996.9246    2131.6555    848.84647    72.492539    62.780381    36.167542   -16.680109   -311583.27 
   99770    478.38957    164604.03    72.492774    72.492775    36.167659          120    19676.259    20474.337   -36936.265    1428.3309    1727.1499   -57.569862    72.492774    62.780585    36.167659    1071.4437   -311579.95 
   99780    479.58931    164605.94    72.493054    72.493055    36.167799          120    19501.499    20545.086   -36067.682    1342.7337    2672.6225   -470.62607    72.493054    62.780827    36.167799    1326.3009   -311582.49 
   99790    478.73768    164608.25    72.493393    72.493394    36.167968          120    18273.684    19212.721   -36331.276    1419.8158    2863.2601   -38.968571    72.493393    62.781121    36.167968    385.04305   -311581.13 
   99800    481.16756    164610.68     72.49375    72.493751    36.168146          120    18036.456    18005.948   -38123.234    1210.9941    2666.5099    -181.6494     72.49375     62.78143    36.168146   -693.60977   -311585.45 
   99810    474.39933    164612.93    72.494079     72.49408     36.16831          120    18601.265    18406.174   -38150.274    1357.5356     2623.855    224.14938    72.494079    62.781715     36.16831   -380.94533   -311572.22 
   99820    476.85885    164615.05    72.494391    72.494392    36.168466          120        19347    19335.642   -38068.638    1463.0353    2379.2525   -306.16903    72.494391    62.781985    36.168466    204.66799   -311576.57 
   99830     478.1316    164617.19    72.494706    72.494707    36.168623          120    18257.544    19374.963   -37998.175    1647.2975     1553.224   -835.08147    72.494706    62.782258    36.168623   -121.88936   -311578.77 
   99840    475.70154    164619.31    72.495016    72.495017    36.168778          120    17357.437    19310.751   -37395.313    1689.2466    889.96105   -300.46716    72.495016    62.782526    36.168778   -242.37519   -311573.09 
   99850    481.95219    164621.35    72.495315    72.495316    36.168927          120    16649.524    19536.458   -38062.546    2840.3346     1136.058    234.54053    72.495315    62.782785    36.168927   -625.52139   -311583.68 
   99860    480.62099    164623.16    72.495582    72.495582     36.16906          120    17305.023    18584.124   -39037.717    2797.5193    638.42709    489.24791    72.495582    62.783016     36.16906   -1049.5231   -311579.34 
   99870    479.60113    164624.65    72.495801    72.495802    36.169169          120    17441.245    18276.903     -37441.8    1931.1664    1296.8261   -330.32285    72.495801    62.783206    36.169169   -574.55067   -311575.37 
   99880    488.40284    164625.98    72.495996    72.495997    36.169267          120     17592.78    19377.858   -36329.386    1801.1072    1878.7012   -685.42845    72.495996    62.783375    36.169267    213.75063   -311589.64 
   99890    480.68435    164627.37    72.496199      72.4962    36.169368          120    17710.202    19036.288   -36358.288    2328.3043    2045.9918   -957.95018    72.496199    62.783551    36.169368    129.40041   -311571.74 
   99900    484.99127    164628.78    72.496407    72.496407    36.169471          120    18382.229     18521.32   -38099.514    1981.2233    2557.6799   -494.25579    72.496407     62.78373    36.169471   -398.65504   -311577.55 
   99910    480.87021    164630.07    72.496597    72.496597    36.169566          120    18433.703    17724.402   -37738.369    2131.1347    2156.2005   -101.79164    72.496597    62.783895    36.169566   -526.75451   -311568.57 
   99920    482.08175     164631.2    72.496762    72.496762    36.169648          120    18254.004    17494.905   -37381.702    1744.2734    1800.6154    337.25698    72.496762    62.784038    36.169648   -544.26444   -311569.18 
   99930    483.00596    164632.16    72.496903    72.496903    36.169719          120     18700.21    17890.059   -37120.776    2144.3202    1599.8685    35.626249    72.496903     62.78416    36.169719   -176.83568   -311569.26 
   99940    482.49132    164633.05    72.497034    72.497034    36.169784          120    18120.248    18800.466    -37168.93    1825.8461    1816.4832   -58.117658    72.497034    62.784273    36.169784   -82.738845   -311567.05 
   99950    484.31521    164633.87    72.497155    72.497155    36.169844          120    17324.454    18807.102    -39058.21    1533.9648    1969.3856    214.66875    72.497155    62.784378    36.169844   -975.55118   -311569.99 
   99960    486.13363    164634.43    72.497235    72.497236    36.169885          120    17212.938    19041.286   -38206.019    1458.2291    1478.8405   -502.02982    72.497235    62.784448    36.169885   -650.59825   -311572.53 
   99970     483.7595    164634.78    72.497287    72.497288    36.169911          120    17561.613    19838.621    -37163.03      1351.23     503.3701   -398.51189    72.497287    62.784493    36.169911    79.068037   -311567.37 
   99980    481.78142    164635.15    72.497341    72.497342    36.169938          120    18470.411    19567.222   -37335.616    847.63419    824.37252   -310.42343    72.497341     62.78454    36.169938    234.00582   -311563.57 
   99990    486.12083    164635.59    72.497406    72.497406     36.16997          120    18437.995     18575.88    -36797.05    1225.1314    1188.6429    342.27498    72.497406    62.784596     36.16997    72.274715   -311570.83 
  100000    485.18059    164636.04    72.497472    72.497472    36.170003          120    17408.315    18832.724   -37769.307     1749.288    1833.5127   -320.37662    72.497472    62.784653    36.170003   -509.42262   -311568.64 
Loop time of 33363.4 on 1 procs for 100000 steps with 14848 atoms

Performance: 0.259 ns/day, 92.676 hours/ns, 2.997 timesteps/s
92.7% CPU use with 1 MPI tasks x no OpenMP threads

MPI task timing breakdown:
Section |  min time  |  avg time  |  max time  |%varavg| %total
---------------------------------------------------------------
Pair    | 26843      | 26843      | 26843      |   0.0 | 80.46
Bond    | 0.020519   | 0.020519   | 0.020519   |   0.0 |  0.00
Kspace  | 1123.2     | 1123.2     | 1123.2     |   0.0 |  3.37
Neigh   | 4700.1     | 4700.1     | 4700.1     |   0.0 | 14.09
Comm    | 45.815     | 45.815     | 45.815     |   0.0 |  0.14
Output  | 1.0886     | 1.0886     | 1.0886     |   0.0 |  0.00
Modify  | 639.23     | 639.23     | 639.23     |   0.0 |  1.92
Other   |            | 11.38      |            |       |  0.03

Nlocal:    14848 ave 14848 max 14848 min
Histogram: 1 0 0 0 0 0 0 0 0 0
Nghost:    46604 ave 46604 max 46604 min
Histogram: 1 0 0 0 0 0 0 0 0 0
Neighs:    9.9953e+06 ave 9.9953e+06 max 9.9953e+06 min
Histogram: 1 0 0 0 0 0 0 0 0 0

Total # of neighbors = 9995301
Ave neighs/atom = 673.175
Ave special neighs/atom = 0
Neighbor list builds = 16775
Dangerous builds = 0
 
All done!
Total wall time: 9:21:16
