LAMMPS (16 Mar 2018)
Reading data file ...
  triclinic box = (0 0 0) to (9.208 7.97436 18.376) with tilt (-4.604 0 0)
  1 by 1 by 1 MPI processor grid
  reading atoms ...
  116 atoms
Finding 1-2 1-3 1-4 neighbors ...
  special bond factors lj:   0          0          0         
  special bond factors coul: 0          0          0         
  0 = max # of 1-2 neighbors
  0 = max # of 1-3 neighbors
  0 = max # of 1-4 neighbors
  1 = max # of special neighbors
Replicating atoms ...
  triclinic box = (0 0 0) to (73.664 63.7949 36.752) with tilt (-36.832 0 0)
  1 by 1 by 1 MPI processor grid
  14848 atoms
Finding 1-2 1-3 1-4 neighbors ...
  special bond factors lj:   0          0          0         
  special bond factors coul: 0          0          0         
  0 = max # of 1-2 neighbors
  0 = max # of 1-3 neighbors
  0 = max # of 1-4 neighbors
  1 = max # of special neighbors
  Time spent = 0.00469184 secs
PPPM initialization ...
WARNING: System is not charge neutral, net charge = -0.2048 (../kspace.cpp:302)
  using 12-bit tables for long-range coulomb (../kspace.cpp:321)
  G vector (1/distance) = 0.201681
  grid = 36 50 24
  stencil order = 5
  estimated absolute RMS force accuracy = 0.00105653
  estimated relative force accuracy = 7.33721e-05
  using double precision FFTs
  3d grid and FFT values/proc = 65395 43200
Neighbor list info ...
  update every 1 steps, delay 0 steps, check yes
  max neighbors/atom: 2000, page size: 100000
  master list distance cutoff = 15.3
  ghost atom cutoff = 15.3
  binsize = 7.65, bins = 15 9 5
  3 neighbor lists, perpetual/occasional/extra = 3 0 0
  (1) pair morse, perpetual
      attributes: half, newton on
      pair build: half/bin/newton/tri
      stencil: half/bin/3d/newton/tri
      bin: standard
  (2) pair buck, perpetual, copy from (1)
      attributes: half, newton on
      pair build: copy
      stencil: none
      bin: none
  (3) pair lj/cut/coul/long, perpetual, copy from (1)
      attributes: half, newton on
      pair build: copy
      stencil: none
      bin: none
Setting up Verlet run ...
  Unit style    : metal
  Current step  : 0
  Time step     : 0.001
Per MPI rank memory allocation (min/avg/max) = 145.7 | 145.7 | 145.7 Mbytes
Step Temp Volume Cella Cellb Cellc CellGamma Pxx Pyy Pzz Pxy Pxz Pyz Lx Ly Lz Press PotEng 
       0          800    172711.88       73.664    73.664001       36.752          120   -194750.48   -194892.37   -266409.96    64.290866   -20.341689    27.208548       73.664    63.794896       36.752   -218684.27   -308813.26 
      10    595.47724     172688.3    73.660648    73.660649    36.750328          120   -189991.02   -190087.87   -235673.79    151.69483   -30.408682   -286.37839    73.660648    63.791993    36.750328   -205250.89    -308434.7 
      20    895.99954    172620.15    73.650956    73.650957    36.745492          120    -178508.3   -178566.31   -172223.95     96.06006   -210.04551     -604.246    73.650956      63.7836    36.745492   -176432.85   -309021.25 
      30    964.20136    172514.13    73.635876    73.635876    36.737968          120   -137362.11   -137478.85   -92448.624    -155.0342   -838.17433   -572.28004    73.635876     63.77054    36.737968   -122429.86   -309161.65 
      40    739.38504    172382.05    73.617078    73.617078     36.72859          120   -89030.128   -89737.085   -15688.007    -1297.284   -1101.7413   -512.97007    73.617078     63.75426     36.72859   -64818.407   -308730.46 
      50    856.63788    172236.12    73.596299    73.596299    36.718223          120   -62268.984   -63425.378   -2535.1431   -392.00465   -672.27302   -656.15544    73.596299    63.736265    36.718223   -42743.169   -308951.26 
      60    1089.5443    172081.79     73.57431    73.574311    36.707253          120    -54825.93   -54305.092   -51053.456   -1267.3319   -1692.8495   -730.16649     73.57431    63.717222    36.707253   -53394.826   -309398.79 
      70    1207.8002    171918.04    73.550965    73.550966    36.695605          120   -50110.431   -50982.617   -114787.59    -1972.725   -2316.7403   -852.78008    73.550965    63.697005    36.695605   -71960.212   -309646.44 
      80    1083.0579    171742.01    73.525853    73.525854    36.683077          120    -49202.19   -51484.831    -157380.6   -2033.4491   -2152.4777   -203.96942    73.525853    63.675257    36.683077   -86022.539   -309433.67 
      90    866.33094    171552.02    73.498731    73.498732    36.669545          120   -47644.925   -47666.949   -167362.88   -1778.4331   -2720.4572   -1737.8284    73.498731    63.651769    36.669545    -87558.25   -309037.18 
     100    901.61322    171349.49    73.469796    73.469796    36.655109          120    -31995.14   -31392.905   -146447.25   -1601.0095    -2445.594   -1711.0923    73.469796     63.62671    36.655109   -69945.097   -309123.42 
     110      1049.09    171139.69    73.439798    73.439799    36.640143          120   -13592.542   -13477.649   -108901.01   -1777.4015   -750.60592   -1956.0344    73.439798    63.600731    36.640143   -45323.735   -309428.67 
     120    1069.6759    170929.44    73.409711    73.409712    36.625132          120   -3241.9168   -3155.4424   -65092.509   -1606.4154   -229.06572   -1580.9899    73.409711    63.574675    36.625132   -23829.956   -309494.01 
     130    989.89149    170724.64    73.380381    73.380381    36.610498          120   -2838.0126   -1476.3435   -29715.742    -1197.254    -793.7509   -1787.0973    73.380381    63.549274    36.610498   -11343.366   -309365.58 
     140    951.47526    170528.89    73.352325    73.352326    36.596501          120   -6431.5998   -6294.4894   -16076.773   -761.15909   -697.14732   -2481.9458    73.352325    63.524978    36.596501   -9600.9541   -309311.57 
     150    982.23439    170343.08    73.325673    73.325673    36.583204          120   -13379.664   -12257.101   -33364.176   -2073.2233   -751.09722   -1773.6291    73.325673    63.501896    36.583204   -19666.981   -309391.97 
     160    1041.0685    170165.46    73.300178    73.300179    36.570484          120   -20918.048   -20106.021   -64321.797   -2069.0631    -1246.667   -2804.6884    73.300178    63.479817    36.570484   -35115.289   -309530.43 
     170    1046.4357    169993.17    73.275432    73.275433    36.558138          120   -24700.829   -24294.293   -92414.635   -1490.1867   -1996.5703   -2852.6369    73.275432    63.458387    36.558138   -47136.586   -309570.78 
     180    981.38803    169824.03    73.251121    73.251121    36.546009          120   -22095.783   -21675.979    -110935.7   -670.10861    -2444.597   -2624.7187    73.251121    63.437332    36.546009   -51569.153   -309475.68 
     190    954.40997    169657.29    73.227139     73.22714    36.534044          120   -19168.455   -17090.411   -112336.15   -755.18798    -2960.784   -2214.1891    73.227139    63.416563    36.534044   -49531.672   -309451.52 
     200    976.82886    169493.52     73.20357    73.203571    36.522285          120   -14661.439   -14631.481   -96361.201   -1461.9641   -2302.1192   -1643.3644     73.20357    63.396152    36.522285   -41884.707   -309520.55 
     210    1009.5615    169334.19    73.180625    73.180626    36.510838          120   -10658.492   -11567.079   -76141.143   -1685.1273   -2193.3585   -2162.4426    73.180625    63.376281    36.510838   -32788.905   -309610.47 
     220    992.40966    169180.83    73.158526    73.158527    36.499812          120   -8124.7462   -7789.9799   -59393.544    -2140.754   -1746.7831   -3448.4547    73.158526    63.357143    36.499812   -25102.757   -309603.81 
     230    975.44697    169034.36    73.137407    73.137408    36.489276          120   -8893.7992   -8686.5776   -51402.859   -1150.1147   -869.57055   -4477.3364    73.137407    63.338853    36.489276   -22994.412   -309595.78 
     240    968.19152    168894.58    73.117241    73.117241    36.479214          120   -10265.552   -9967.2713   -50685.558      -1029.5   -1302.5119   -5195.2877    73.117241    63.321389    36.479214    -23639.46   -309607.27 
     250    986.12272    168760.51     73.09789     73.09789     36.46956          120    -13477.16   -13209.225   -59825.172   -192.86572     -1232.65   -4638.5331     73.09789     63.30463     36.46956   -28837.185   -309667.82 
     260    999.75837    168630.51    73.079115    73.079115    36.460193          120    -15960.04   -14560.695   -71326.996   -591.19122   -2564.9295   -4666.1409    73.079115    63.288371    36.460193   -33949.243   -309721.47 
     270    982.65247    168502.98    73.060687    73.060688    36.450999          120   -15270.549   -14979.257    -80564.86    72.087761   -2281.5872   -3656.1283    73.060687    63.272412    36.450999   -36938.222   -309716.71 
     280    960.08645    168376.79    73.042445    73.042445    36.441897          120   -15065.455   -14424.466   -85538.489     675.4844   -1982.0661   -2870.5257    73.042445    63.256613    36.441897   -38342.804    -309700.8 
     290    960.69133    168251.32    73.024297    73.024297    36.432843          120    -12055.14   -11971.916   -81830.603    193.59622   -2082.9838   -2826.2796    73.024297    63.240897    36.432843   -35285.886   -309728.39 
     300    968.91181    168126.79    73.006277    73.006278    36.423853          120   -7805.8424   -7726.5783    -72932.98   -570.86964   -1627.2848   -3408.4536    73.006277    63.225291    36.423853   -29488.467   -309769.71 
     310    964.07119    168003.97    72.988495    72.988495    36.414981          120   -5072.0853   -5482.7872   -61886.778    -1354.436   -1771.4633   -2928.7285    72.988495    63.209891    36.414981   -24147.217   -309785.88 
     320    953.44555    167883.53     72.97105    72.971051    36.406278          120   -4410.1902   -3845.4058   -51829.386   -520.92211   -351.49198   -3229.1081     72.97105    63.194784    36.406278   -20028.327   -309791.47 
     330    945.82268    167765.95     72.95401     72.95401    36.397776          120   -2997.3254   -2418.5716   -45884.071    412.98465   -859.54956   -3667.0192     72.95401    63.180027    36.397776   -17099.989   -309800.44 
     340    942.94267    167651.35    72.937395    72.937395    36.389486          120   -3045.0683   -2806.0227   -48935.755    1068.7339   -1385.0038   -3470.9935    72.937395    63.165637    36.389486   -18262.282   -309818.21 
     350    951.94792    167539.17    72.921123    72.921123    36.381368          120   -5020.8561   -2767.9814   -58026.412    1440.5079   -1105.1633   -2406.5636    72.921123    63.151545    36.381368   -21938.417   -309859.93 
     360    942.34369     167428.4    72.905048    72.905049    36.373348          120   -6159.6994   -3337.3944   -67754.654    1103.3632   -2304.9701   -2727.4965    72.905048    63.137625    36.373348   -25750.583   -309866.58 
     370     931.6752    167318.11    72.889037    72.889038     36.36536          120   -5514.1689   -4432.6292   -71386.757   -444.58135   -3831.0006   -2810.4919    72.889037    63.123758     36.36536   -27111.185   -309869.62 
     380    919.19214    167207.91     72.87303    72.873031    36.357374          120   -3670.9736   -2415.3211   -69732.525   -960.66343   -3232.3549   -2760.7632     72.87303    63.109896    36.357374    -25272.94   -309869.24 
     390    931.82602    167098.03    72.857065    72.857065    36.349409          120    -1629.446    100.62441    -63709.33   -807.71738   -1793.7231   -2732.6421    72.857065     63.09607    36.349409    -21746.05   -309916.63 
     400    918.67095    166989.09    72.841228    72.841229    36.341508          120    1964.1036     1586.617   -55676.765   -46.892645   -648.96337   -3443.3786    72.841228    63.082355    36.341508   -17375.348   -309913.77 
     410    918.43763    166881.82    72.825628    72.825629    36.333725          120    4008.2406     2994.603   -47962.906     489.3411   -1026.0884    -2716.232    72.825628    63.068845    36.333725   -13653.354   -309935.93 
     420    907.68381    166776.84    72.810353    72.810354    36.326104          120    3859.6499    3847.9759   -44623.358     663.7905   -209.60827   -1640.5741    72.810353    63.055616    36.326104   -12305.244   -309937.22 
     430    914.57467    166674.24     72.79542     72.79542    36.318653          120    1716.9833    3828.6508   -47037.177    440.85153   -92.797606    -2281.459     72.79542    63.042683    36.318653   -13830.514   -309972.19 
     440     908.0656    166573.63    72.780769     72.78077    36.311344          120    961.92896    3095.0586   -51835.719   -776.23635    -382.5956   -1564.1784    72.780769    63.029996    36.311344   -15926.244    -309980.7 
     450    908.01733    166474.49    72.766327    72.766328    36.304139          120    960.66335    2034.1133   -55472.776   -865.40571   -388.61517   -2048.3297    72.766327    63.017489    36.304139   -17492.667   -310002.11 
     460    899.38034    166376.46    72.752041    72.752042    36.297011          120    2528.8492    3519.9545   -58465.988    909.31045   -423.35547   -2391.2624    72.752041    63.005117    36.297011   -17472.395   -310007.64 
     470    893.81065    166279.48    72.737903    72.737904    36.289957          120    3690.8362    6575.2498   -58368.805    2127.4018   -1171.7936   -3413.8124    72.737903    62.992873    36.289957    -16034.24   -310018.21 
     480    885.73005    166183.78    72.723946    72.723946    36.282994          120    3690.3513    7775.7373   -54336.498    2333.4435   -1763.8605   -3914.8683    72.723946    62.980785    36.282994   -14290.137   -310023.56 
     490    871.76279    166089.67    72.710216    72.710217    36.276144          120    5383.1452    9663.4316   -48863.635    1711.5996   -1605.7051   -2173.1346    72.710216    62.968895    36.276144   -11272.353    -310015.5 
     500    877.12219    165997.64    72.696785    72.696785    36.269443          120    7434.1796    10080.686   -44355.086    701.95283   -1410.7514   -2305.6506    72.696785    62.957263    36.269443     -8946.74   -310043.44 
     510    884.49742    165908.11    72.683712    72.683712     36.26292          120    9277.4524    11362.214   -41583.252    142.07209   -434.49743   -2249.8745    72.683712    62.945941     36.26292   -6981.1951   -310075.84 
     520    871.05555    165821.31    72.671034    72.671034    36.256595          120     8786.571    13227.046   -40928.431    669.62322   -12.129379   -1135.6299    72.671034    62.934962    36.256595    -6304.938   -310068.21 
     530    869.44134    165737.26    72.658754    72.658755    36.250469          120    10863.442    13470.976   -41620.447    1326.2112   -116.26113   -1034.8554    72.658754    62.924328    36.250469   -5762.0095      -310083 
     540    866.33248    165655.96    72.646872    72.646872     36.24454          120    13137.072    13618.544   -42556.167    1340.3576   -902.73554   -1020.4537    72.646872    62.914037     36.24454   -5266.8506   -310094.94 
     550    867.94791    165577.34    72.635377    72.635378    36.238806          120    14417.582    13595.654   -46355.325    943.88622    -1071.311   -1501.7436    72.635377    62.904083    36.238806   -6114.0295   -310115.85 
     560    865.32216    165501.17    72.624237    72.624237    36.233247          120    14353.794     13530.37    -46236.26    1166.0579    -836.3961   -2712.4905    72.624237    62.894434    36.233247    -6117.365   -310128.09 
     570    852.67637    165427.31    72.613432    72.613433    36.227857          120    15307.135    14525.264   -46005.189    1430.1208   -1039.9778   -1588.9242    72.613432    62.885078    36.227857     -5390.93   -310120.17 
     580    853.85912     165355.8    72.602967    72.602968    36.222636          120    14871.339     16262.99   -42813.597    1707.0584   -1095.2049   -573.19589    72.602967    62.876015    36.222636   -3893.0894   -310138.74 
     590    848.01797    165286.78    72.592865    72.592866    36.217596          120    15552.513    17325.144   -38697.607    1549.0638   -975.43576   -1464.4818    72.592865    62.867266    36.217596   -1939.9834   -310143.86 
     600    852.88158    165220.51    72.583162    72.583163    36.212755          120    15250.853     17920.98   -36351.144    1784.3539    1056.6262   -2065.1237    72.583162    62.858863    36.212755   -1059.7707   -310169.37 
     610    841.47341    165157.04    72.573866    72.573867    36.208117          120    16237.219    17364.262   -35853.243    1263.5541    339.55205   -1741.7452    72.573866    62.850813    36.208117    -750.5873   -310163.02 
     620    849.04328    165096.28    72.564965    72.564966    36.203676          120     17418.76    17863.669   -37860.041    601.89916   -911.99495   -1818.3843    72.564965    62.843104    36.203676   -859.20396   -310193.01 
     630    840.40931    165038.06    72.556435    72.556435     36.19942          120      16357.6    16509.215   -38474.857    831.63151   -518.34915   -2495.2728    72.556435    62.835716     36.19942   -1869.3472   -310190.82 
     640    835.10881    164982.09    72.548231    72.548232    36.195327          120    14857.343     16718.26   -39001.647    626.73019    71.012285   -2205.9732    72.548231    62.828612    36.195327   -2475.3479   -310195.12 
     650    831.48622    164928.12    72.540319     72.54032     36.19138          120    15784.129    18325.151   -40416.531    1122.5836    107.38916   -2027.3457    72.540319     62.82176     36.19138   -2102.4167   -310202.97 
     660    836.13283    164876.09    72.532691    72.532692    36.187574          120    17180.283    17617.208   -40035.412    805.74373   -312.44087   -1996.6278    72.532691    62.815154    36.187574   -1745.9734   -310225.72 
     670    826.63671    164826.02    72.525347    72.525348     36.18391          120    17472.151    17800.863   -37539.344    712.92427   -377.71454   -1667.7942    72.525347    62.808794     36.18391    -755.4435   -310220.79 
     680    817.12966    164777.97      72.5183      72.5183    36.180394          120    18634.583    20256.228   -34913.971    1420.0741   -750.43061   -1280.1335      72.5183    62.802691    36.180394    1325.6134   -310215.57 
     690    824.49639    164732.22    72.511587    72.511588    36.177045          120    19457.341    20522.257   -32951.416    671.86617   -541.98811   -1061.5719    72.511587    62.796877    36.177045    2342.7272   -310242.42 
     700    831.85696    164688.87    72.505226    72.505227    36.173872          120    19089.096    20173.152   -31720.918    479.21346   -74.850692   -1355.6137    72.505226    62.791368    36.173872    2513.7769   -310268.66 
     710    819.26556    164647.82    72.499202    72.499202    36.170866          120    18593.363    19610.699   -32909.171    665.06321    271.79967   -1918.5853    72.499202    62.786151    36.170866    1764.9635   -310256.15 
     720    811.01404    164608.87    72.493484    72.493484    36.168013          120    19353.758    20822.865     -32480.2    863.33121    -315.1394     -1614.61    72.493484    62.781199    36.168013    2565.4742   -310252.21 
     730    812.57181    164572.01    72.488073    72.488073    36.165313          120    20268.105    21407.889   -31959.553    1496.9177    204.73135   -2132.5743    72.488073    62.776513    36.165313    3238.8137   -310265.46 
     740    808.01552    164537.26     72.48297    72.482971    36.162768          120    20972.104    21092.206   -33331.035    1654.4144   -86.194463   -2759.9419     72.48297    62.772094    36.162768    2911.0918    -310267.9 
     750     805.4653    164504.48    72.478156    72.478157    36.160366          120    20925.194    20400.624   -33223.674    133.88901    -737.8256   -2277.7266    72.478156    62.767925    36.160366    2700.7146   -310273.19 
     760    813.36744    164473.53    72.473611    72.473612    36.158098          120    21437.124     20796.06   -33877.841    61.816978    847.13209   -2459.3881    72.473611    62.763989    36.158098    2785.1146   -310298.16 
     770    809.20063    164444.36    72.469326    72.469327    36.155961          120    21852.547     20867.79   -33223.397   -326.70193    445.94647   -3139.2965    72.469326    62.760278    36.155961    3165.6467   -310299.88 
     780    801.86704    164416.96    72.465301    72.465302    36.153952          120     22384.23    20712.569   -31503.762    239.04921    1870.3056   -2612.2332    72.465301    62.756792    36.153952     3864.346   -310294.82 
     790    801.05296    164391.36     72.46154     72.46154    36.152076          120    22638.877    21541.603   -30971.331    1002.2984     3442.099    -2160.127     72.46154    62.753535    36.152076    4403.0496   -310301.93 
     800    800.78747    164367.59    72.458046    72.458047    36.150333          120    22614.123     22407.83    -30764.99    2324.3763    3113.9728   -2208.5992    72.458046     62.75051    36.150333    4752.3206   -310310.09 
     810    797.10574    164345.66    72.454824    72.454825    36.148725          120    22513.158    23872.357   -29656.065    2074.9081    1144.0199   -1717.0976    72.454824    62.747719    36.148725     5576.483   -310311.06 
     820    799.10072     164325.6    72.451876    72.451876    36.147254          120     21212.92    22656.064   -31334.086    408.06884    1406.5649   -2899.6798    72.451876    62.745166    36.147254    4178.2996   -310322.41 
     830    794.59827    164307.12     72.44916    72.449161      36.1459          120    22880.538    22668.255   -32846.443   -353.26617     724.3772   -2982.6107     72.44916    62.742814      36.1459    4234.1168   -310322.33 
     840    797.21937    164290.16    72.446667    72.446668    36.144656          120    24215.143    23461.567   -31679.962   -19.948642     778.3216   -3059.1605    72.446667    62.740655    36.144656    5332.2493   -310333.45 
     850    794.77081    164274.85    72.444416    72.444417    36.143533          120     23522.03    23716.887   -28864.174    1123.8438    1224.1158   -4188.5645    72.444416    62.738706    36.143533    6124.9144    -310335.2 
     860    791.38955    164261.25    72.442417    72.442418    36.142535          120    23526.426    22539.592   -28799.188    1725.8032    843.44993   -2839.1554    72.442417    62.736974    36.142535    5755.6102   -310334.82 
     870    786.85382    164249.25    72.440654    72.440654    36.141655          120    23153.582    22139.949   -29204.503    1242.6652    1680.1749   -1889.1021    72.440654    62.735447    36.141655    5363.0093   -310331.93 
     880    793.96889    164238.73    72.439107    72.439108    36.140884          120    22583.406    23189.922   -29907.529    127.01138    2655.6557   -2659.7748    72.439107    62.734108    36.140884    5288.5998   -310350.49 
     890    786.69458     164229.6    72.437764    72.437765    36.140214          120     21728.24    24261.892   -29897.526   -161.20278     3396.747   -1344.0191    72.437764    62.732945    36.140214    5364.2019   -310340.73 
     900     781.9646    164221.82     72.43662    72.436621    36.139643          120    22297.585     23419.16   -29350.347   -986.50489    2588.6927   -1246.1775     72.43662    62.731954    36.139643    5455.4659   -310335.63 
     910    790.46392    164215.35    72.435669     72.43567    36.139169          120    22455.913    24503.497   -31098.377   -695.84023    1709.3899   -3446.1294    72.435669     62.73113    36.139169    5287.0111   -310355.88 
     920    784.17245    164210.14    72.434904    72.434905    36.138787          120    23388.942    26171.061   -31070.734   -181.17633    1518.7231   -3675.9863    72.434904    62.730468    36.138787    6163.0897   -310346.79 
     930    782.47784    164206.29    72.434338    72.434338    36.138504          120    24148.186    26018.419   -31487.593    522.88647    1343.1062   -3305.6614    72.434338    62.729977    36.138504    6226.3373   -310345.69 
     940    789.43082    164203.77    72.433967    72.433967    36.138319          120    23451.781    25897.421   -31138.145    567.43141    2269.4225    -3829.435    72.433967    62.729656    36.138319    6070.3522   -310360.25 
     950    790.62358    164202.51    72.433782    72.433782    36.138227          120    23236.037    26036.034   -29821.711    364.70514    2755.6337   -2922.3184    72.433782    62.729496    36.138227    6483.4531   -310364.11 
     960    791.49282    164202.54    72.433786    72.433787    36.138229          120    23543.313    25153.861   -28800.836    100.88562    2082.5516   -2406.5736    72.433786      62.7295    36.138229    6632.1123   -310367.02 
     970    784.13574    164203.85    72.433979     72.43398    36.138325          120     22675.32    25383.982    -28628.37    192.78998     2186.801   -1650.2054    72.433979    62.729667    36.138325    6476.9776    -310353.9 
     980    793.57884    164206.39    72.434353    72.434353    36.138512          120      22999.3     24629.25   -28926.521    513.45768    1942.6235   -1292.3462    72.434353     62.72999    36.138512    6234.0096   -310371.97 
     990    780.50729    164210.07    72.434894    72.434894    36.138782          120    23015.745     24560.22   -29553.003     771.4203    1930.9896    -2500.893    72.434894    62.730459    36.138782    6007.6541   -310346.29 
    1000    788.93283     164214.8    72.435589     72.43559    36.139129          120        23884    23515.304   -29485.456    1028.8597    702.80192   -2624.7553    72.435589    62.731061    36.139129    5971.2826   -310361.98 
Loop time of 408.841 on 1 procs for 1000 steps with 14848 atoms

Performance: 0.211 ns/day, 113.567 hours/ns, 2.446 timesteps/s
100.0% CPU use with 1 MPI tasks x no OpenMP threads

MPI task timing breakdown:
Section |  min time  |  avg time  |  max time  |%varavg| %total
---------------------------------------------------------------
Pair    | 308.53     | 308.53     | 308.53     |   0.0 | 75.46
Bond    | 0.00062275 | 0.00062275 | 0.00062275 |   0.0 |  0.00
Kspace  | 14.54      | 14.54      | 14.54      |   0.0 |  3.56
Neigh   | 76.615     | 76.615     | 76.615     |   0.0 | 18.74
Comm    | 0.59651    | 0.59651    | 0.59651    |   0.0 |  0.15
Output  | 0.013649   | 0.013649   | 0.013649   |   0.0 |  0.00
Modify  | 8.3731     | 8.3731     | 8.3731     |   0.0 |  2.05
Other   |            | 0.1749     |            |       |  0.04

Nlocal:    14848 ave 14848 max 14848 min
Histogram: 1 0 0 0 0 0 0 0 0 0
Nghost:    46740 ave 46740 max 46740 min
Histogram: 1 0 0 0 0 0 0 0 0 0
Neighs:    1.00207e+07 ave 1.00207e+07 max 1.00207e+07 min
Histogram: 1 0 0 0 0 0 0 0 0 0

Total # of neighbors = 10020718
Ave neighs/atom = 674.887
Ave special neighs/atom = 0
Neighbor list builds = 227
Dangerous builds = 0
PPPM initialization ...
  using 12-bit tables for long-range coulomb (../kspace.cpp:321)
  G vector (1/distance) = 0.202507
  grid = 36 50 24
  stencil order = 5
  estimated absolute RMS force accuracy = 0.00100377
  estimated relative force accuracy = 6.97077e-05
  using double precision FFTs
  3d grid and FFT values/proc = 65395 43200
Setting up Verlet run ...
  Unit style    : metal
  Current step  : 0
  Time step     : 0.001
Per MPI rank memory allocation (min/avg/max) = 150.3 | 150.3 | 150.3 Mbytes
Step Temp Volume Cella Cellb Cellc CellGamma Pxx Pyy Pzz Pxy Pxz Pyz Lx Ly Lz Press PotEng 
       0    788.93283     164214.8    72.435589     72.43559    36.139129          120    23893.989    23525.765   -29481.408    1029.1782    702.67832   -2624.7798    72.435589    62.731061    36.139129    5979.4483   -310361.84 
  100000    800.48592    166684.64    72.796934    72.796934    36.319408          120    14007.644    20743.009   -39310.715   -1445.1795   -342.76672   -885.05423    72.796934    63.043994    36.319408    -1520.021   -310512.05 
Loop time of 39665 on 1 procs for 100000 steps with 14848 atoms

Performance: 0.218 ns/day, 110.181 hours/ns, 2.521 timesteps/s
100.0% CPU use with 1 MPI tasks x no OpenMP threads

MPI task timing breakdown:
Section |  min time  |  avg time  |  max time  |%varavg| %total
---------------------------------------------------------------
Pair    | 30133      | 30133      | 30133      |   0.0 | 75.97
Bond    | 0.062508   | 0.062508   | 0.062508   |   0.0 |  0.00
Kspace  | 1469.5     | 1469.5     | 1469.5     |   0.0 |  3.70
Neigh   | 7150.8     | 7150.8     | 7150.8     |   0.0 | 18.03
Comm    | 57.963     | 57.963     | 57.963     |   0.0 |  0.15
Output  | 0.00012803 | 0.00012803 | 0.00012803 |   0.0 |  0.00
Modify  | 836.8      | 836.8      | 836.8      |   0.0 |  2.11
Other   |            | 17.11      |            |       |  0.04

Nlocal:    14848 ave 14848 max 14848 min
Histogram: 1 0 0 0 0 0 0 0 0 0
Nghost:    46343 ave 46343 max 46343 min
Histogram: 1 0 0 0 0 0 0 0 0 0
Neighs:    9.87086e+06 ave 9.87086e+06 max 9.87086e+06 min
Histogram: 1 0 0 0 0 0 0 0 0 0

Total # of neighbors = 9870864
Ave neighs/atom = 664.794
Ave special neighs/atom = 0
Neighbor list builds = 21135
Dangerous builds = 0
 
All done!
Total wall time: 11:07:55
