LAMMPS (16 Mar 2018)
Reading data file ...
  triclinic box = (0 0 0) to (9.208 7.97436 18.376) with tilt (-4.604 0 0)
  1 by 1 by 1 MPI processor grid
  reading atoms ...
  116 atoms
Finding 1-2 1-3 1-4 neighbors ...
  special bond factors lj:   0          0          0         
  special bond factors coul: 0          0          0         
  0 = max # of 1-2 neighbors
  0 = max # of 1-3 neighbors
  0 = max # of 1-4 neighbors
  1 = max # of special neighbors
Replicating atoms ...
  triclinic box = (0 0 0) to (73.664 63.7949 36.752) with tilt (-36.832 0 0)
  1 by 1 by 1 MPI processor grid
  14848 atoms
Finding 1-2 1-3 1-4 neighbors ...
  special bond factors lj:   0          0          0         
  special bond factors coul: 0          0          0         
  0 = max # of 1-2 neighbors
  0 = max # of 1-3 neighbors
  0 = max # of 1-4 neighbors
  1 = max # of special neighbors
  Time spent = 0.00361896 secs
PPPM initialization ...
WARNING: System is not charge neutral, net charge = -0.2048 (../kspace.cpp:302)
  using 12-bit tables for long-range coulomb (../kspace.cpp:321)
  G vector (1/distance) = 0.201681
  grid = 36 50 24
  stencil order = 5
  estimated absolute RMS force accuracy = 0.00105653
  estimated relative force accuracy = 7.33721e-05
  using double precision FFTs
  3d grid and FFT values/proc = 65395 43200
Neighbor list info ...
  update every 1 steps, delay 0 steps, check yes
  max neighbors/atom: 2000, page size: 100000
  master list distance cutoff = 15.3
  ghost atom cutoff = 15.3
  binsize = 7.65, bins = 15 9 5
  3 neighbor lists, perpetual/occasional/extra = 3 0 0
  (1) pair morse, perpetual
      attributes: half, newton on
      pair build: half/bin/newton/tri
      stencil: half/bin/3d/newton/tri
      bin: standard
  (2) pair buck, perpetual, copy from (1)
      attributes: half, newton on
      pair build: copy
      stencil: none
      bin: none
  (3) pair lj/cut/coul/long, perpetual, copy from (1)
      attributes: half, newton on
      pair build: copy
      stencil: none
      bin: none
Setting up Verlet run ...
  Unit style    : metal
  Current step  : 0
  Time step     : 0.001
Per MPI rank memory allocation (min/avg/max) = 145.7 | 145.7 | 145.7 Mbytes
Step Temp Volume Cella Cellb Cellc CellGamma Pxx Pyy Pzz Pxy Pxz Pyz Lx Ly Lz Press PotEng 
       0          500    172711.88       73.664    73.664001       36.752          120   -198345.17   -198430.96   -269958.45    40.669272   -12.715189    17.004727       73.664    63.794896       36.752   -222244.86   -308813.26 
      10    455.81272    172673.36    73.658523    73.658523    36.749267          120   -197901.66   -198004.82   -244048.92    135.32518   -26.132211   -224.87101    73.658523    63.790153    36.749267   -213318.47   -308750.56 
      20    738.67243    172560.83    73.642519    73.642519    36.741283          120   -191735.94   -191511.79   -182386.98    43.897503   -254.09538   -486.54591    73.642519    63.776293    36.741283    -188544.9   -309314.38 
      30     775.2381    172383.86    73.617336    73.617337    36.728719          120   -157490.34   -157320.14   -102594.32   -173.04306     -835.757   -517.91306    73.617336    63.754484    36.728719   -139134.93   -309417.21 
      40    552.20705    172160.75    73.585562    73.585563    36.712866          120   -109763.96   -110225.95   -24138.068   -921.37523   -1136.2365   -521.54126    73.585562    63.726967    36.712866   -81375.993   -309009.24 
      50     655.5427    171912.75    73.550212    73.550212    36.695229          120   -75801.125   -76714.095   -1769.2462   -549.34251   -1000.6859   -617.76778    73.550212    63.696352    36.695229   -51428.155   -309214.66 
      60    921.47398    171652.97    73.513144    73.513145    36.676736          120   -60916.482   -60582.222   -46668.795   -939.73343   -1881.8878   -555.26039    73.513144    63.664251    36.676736   -56055.833   -309739.54 
      70    1061.3839    171383.96    73.474723    73.474723    36.657567          120   -51781.916   -52062.267   -111338.11   -1867.7246   -2434.0008   -746.08374    73.474723    63.630977    36.657567   -71727.431   -310046.85 
      80    928.27208     171104.5    73.434764    73.434764    36.637631          120    -47417.47   -49117.932   -156253.92   -1866.8251    -2504.043   -39.105773    73.434764    63.596371    36.637631   -84263.107   -309835.66 
      90    689.38079    170814.76     73.39329     73.39329    36.616939          120   -44336.744   -44825.133   -168249.39   -1891.2869   -2975.1932   -998.29233     73.39329    63.560454    36.616939   -85803.757   -309414.08 
     100    716.24427    170519.14    73.350927    73.350928    36.595804          120   -28810.054   -28793.869   -147048.24    -1755.917   -2667.9175   -1308.4601    73.350927    63.523767    36.595804   -68217.386   -309497.19 
     110    877.55088    170227.45    73.309078    73.309079    36.574925          120   -9458.1715   -9766.7944   -106720.48    -1687.406   -1134.5631   -1621.1721    73.309078    63.487525    36.574925   -41981.815   -309843.27 
     120    892.37387    169950.89    73.269356    73.269357    36.555107          120     1294.738     1419.631   -59479.966   -1577.0701   -727.16174   -1432.9006    73.269356    63.453125    36.555107   -18921.866   -309911.16 
     130    797.91613    169697.57    73.232934    73.232935    36.536935          120    1248.6369     2478.166   -22038.369   -1375.8886   -979.81295   -1632.4546    73.232934    63.421582    36.536935   -6103.8555   -309765.37 
     140    753.20132    169470.34    73.200233    73.200234     36.52062          120   -2882.9661   -2771.1234   -8314.0362   -842.62459   -821.93787   -1775.0188    73.200233    63.393262     36.52062   -4656.0419   -309707.51 
     150    795.96213    169267.03    73.170948    73.170949     36.50601          120   -10120.197   -8968.8579   -28164.025   -1871.3094   -260.79557   -1358.9533    73.170948    63.367901     36.50601   -15751.027   -309819.65 
     160    854.77429     169081.3    73.144176    73.144176    36.492652          120   -18653.392   -17696.038   -61533.212   -1757.8182   -1220.0721   -1899.6266    73.144176    63.344715    36.492652   -32627.548   -309969.06 
     170    852.09495    168905.47    73.118813    73.118814    36.479999          120   -23138.168   -22085.999   -90875.293    -1208.858   -1913.2671   -1926.9594    73.118813     63.32275    36.479999   -45366.487   -310005.07 
     180    780.04503    168733.72    73.094022    73.094022     36.46763          120   -20891.962    -19290.69   -108953.67   -1274.3252   -2236.9161   -2094.2803    73.094022     63.30128     36.46763   -49712.108   -309906.48 
     190    751.32762    168563.28    73.069401    73.069402    36.455346          120   -16808.931   -15238.742   -109622.23   -464.01274   -2346.5422   -2000.4644    73.069401    63.279958    36.455346   -47223.301      -309887 
     200    785.23986    168393.86    73.044913    73.044914    36.443129          120   -12334.168   -12628.296   -92906.188   -1237.4149   -1953.1401   -1983.0175    73.044913    63.258751    36.443129   -39289.551   -309987.85 
     210    805.54854     168226.9    73.020765    73.020766    36.431081          120    -8523.199   -8622.3056   -70784.572   -1622.2963   -1685.0096   -1559.1904    73.020765    63.237838    36.431081   -29310.025   -310063.09 
     220    785.88337    168064.45    72.997253    72.997254    36.419351          120   -6058.0356   -4405.4244   -52586.782   -1511.6148   -1261.3303   -3117.4182    72.997253    63.217476    36.419351   -21016.747    -310061.7 
     230    764.44881    167907.94    72.974586    72.974587    36.408042          120   -5450.3898   -4396.6133   -43020.284   -1081.1065   -372.33319   -3546.6422    72.974586    63.197846    36.408042   -17622.429   -310053.46 
     240    758.56391    167757.34    72.952761    72.952762    36.397153          120   -7768.7785    -5997.376   -44950.168   -654.53481   -1688.2938      -3933.7    72.952761    63.178945    36.397153   -19572.108   -310075.17 
     250    772.30912    167611.05     72.93155    72.931551    36.386571          120   -10590.034   -9705.2873   -56588.032   -207.58335   -2295.8481   -4219.5469     72.93155    63.160576    36.386571   -25627.784   -310135.57 
     260    779.85222    167466.56    72.910587    72.910587    36.376111          120   -11948.282   -12459.124   -70311.782   -411.14164   -2552.4199    -4625.627    72.910587    63.142421    36.376111   -31573.063    -310186.6 
     270    759.30435    167321.56    72.889538    72.889539     36.36561          120   -11770.283     -13116.7   -81049.244    83.555151   -2528.6462   -3655.5272    72.889538    63.124192     36.36561   -35312.076   -310184.35 
     280    739.17869    167174.73     72.86821    72.868211    36.354969          120   -11311.818   -11220.715   -83276.961   -193.49469   -1713.3344   -2547.8074     72.86821    63.105722    36.354969   -35269.831   -310180.55 
     290    735.52768    167026.08    72.846606    72.846606    36.344191          120   -8044.3223   -6791.9734   -76284.196    175.42875   -1485.6497   -2888.1452    72.846606    63.087012    36.344191   -30373.497   -310207.31 
     300    743.19989     166877.1    72.824941    72.824942    36.333382          120     -4062.49   -2770.5586   -64633.978    569.71523   -1283.6718   -2486.5192    72.824941     63.06825    36.333382   -23822.342   -310255.88 
     310    733.78342    166729.86    72.803516    72.803517    36.322693          120   -820.30979   -483.50813   -52375.872    625.32974   -277.49898   -2059.5952    72.803516    63.049695    36.322693    -17893.23   -310269.92 
     320    720.45101     166586.1    72.782586    72.782586     36.31225          120    1054.1179   -448.00233   -42640.261    844.03979   -349.75782   -1656.9388    72.782586    63.031569     36.31225   -14011.382   -310275.91 
     330    711.66501    166446.83    72.762297    72.762298    36.302128          120    1134.7306   -133.37415   -39666.454    397.63718   -346.64944    -1962.759    72.762297    63.013999    36.302128   -12888.366   -310290.12 
     340     713.9012    166312.15    72.742667    72.742667    36.292334          120   -730.34528   -423.09903   -44727.244    541.14048    -617.5247   -2578.2918    72.742667    62.996998    36.292334   -15293.563   -310324.98 
     350    714.38315     166181.1    72.723556    72.723556    36.282799          120   -2190.4193   -622.05708   -55249.331    441.75305   -529.34862   -3393.9686    72.723556    62.980447    36.282799   -19353.936   -310356.59 
     360    702.63061     166052.3    72.704762    72.704763    36.273423          120   -3094.5845    -506.9816   -64526.819   -170.41102   -792.01709     -3030.94    72.704762    62.964171    36.273423   -22709.462   -310364.63 
     370    690.56042    165924.69    72.686134    72.686134    36.264129          120   -1233.6454    411.19521   -67432.417   -659.13551   -2605.1511   -3722.1038    72.686134    62.948039    36.264129   -22751.622   -310371.31 
     380    684.51742    165798.26    72.667667    72.667668    36.254916          120    1741.9788    2662.6438   -62108.743   -687.36059   -3554.7926   -3711.0789    72.667667    62.932046    36.254916   -19234.707   -310390.11 
     390     687.2541    165674.01    72.649511    72.649511    36.245857          120    5157.1647    5194.1689   -54443.996   -763.87255   -2794.4175   -2893.1905    72.649511    62.916322    36.245857   -14697.554   -310424.27 
     400    678.59424    165553.29     72.63186     72.63186    36.237051          120    7640.7404    7425.5748   -45612.319   -811.14605   -1784.1429   -2304.1101     72.63186    62.901036    36.237051   -10182.001   -310435.57 
     410    674.85238    165437.28    72.614891    72.614891    36.228585          120    9212.0134    8449.4301   -38598.787   -946.57427   -1120.2693   -2296.2102    72.614891    62.886341    36.228585   -6979.1144   -310455.81 
     420    668.55165    165326.68    72.598705    72.598706    36.220509          120    8451.8346    9458.8835    -36514.97   -349.31001   -1643.3701   -1365.5058    72.598705    62.872323    36.220509   -6201.4172   -310470.95 
     430    665.79617    165221.38     72.58329     72.58329    36.212818          120    8522.0742    8718.9689   -39677.079   -468.82942      -1547.3    -1674.602     72.58329    62.858973    36.212818   -7478.6788   -310492.34 
     440    660.61286    165120.64    72.568534    72.568534    36.205456          120     7268.312     7067.113   -45628.652    67.627444   -1972.8713   -1560.7442    72.568534    62.846194    36.205456   -10431.076   -310509.31 
     450     651.2632    165023.31    72.554272    72.554273    36.198341          120    6236.7673    6933.0013   -49977.348    624.32469   -2532.5647   -1486.5498    72.554272    62.833843    36.198341   -12269.193   -310516.73 
     460    638.04395    164928.61    72.540392    72.540393    36.191416          120    8219.1028    9232.8836   -52594.226    1519.1954   -1855.1465   -2663.4242    72.540392    62.821823    36.191416    -11714.08   -310517.29 
     470    636.50435    164836.52    72.526887    72.526888    36.184678          120     10449.28    11577.471   -51238.833    1951.8999   -2370.6344   -2565.8722    72.526887    62.810127    36.184678   -9737.3608   -310538.38 
     480    634.27134    164747.42    72.513817    72.513817    36.178158          120    11641.423    13500.537   -46624.705    1437.8511   -2113.2273   -2008.8047    72.513817    62.798808    36.178158   -7160.9149   -310557.39 
     490    633.19368    164661.87    72.501264    72.501265    36.171895          120    12352.219    16078.549   -40961.619    1539.2975   -1658.0975    -1655.267    72.501264    62.787937    36.171895   -4176.9506   -310579.32 
     500    623.20595    164580.52    72.489322    72.489323    36.165937          120      14114.3    16369.357   -36317.539    1336.6392   -1506.6059   -1105.4378    72.489322    62.777595    36.165937   -1944.6276   -310583.29 
     510    616.00579    164503.74    72.478047    72.478048    36.160311          120    15454.633     16441.42   -34579.576     1043.079   -1414.1371    171.75374    72.478047    62.767831    36.160311   -894.50745   -310592.33 
     520     617.6906    164431.46     72.46743    72.467431    36.155015          120    14426.484     15933.73   -35504.535    1296.0331   -1070.0181    190.55572     72.46743    62.758636    36.155015   -1714.7739   -310617.04 
     530    606.28007    164363.13    72.457391    72.457391    36.150006          120    13473.268    15998.441   -39215.748     1806.896   -1045.2505    558.92798    72.457391    62.749942    36.150006   -3248.0129   -310616.61 
     540    610.73495    164298.05    72.447826    72.447827    36.145234          120    14495.389    17163.887   -42947.344    1590.5788   -1865.5314    571.20964    72.447826    62.741659    36.145234   -3762.6893   -310646.19 
     550    606.01029    164235.78    72.438674    72.438674    36.140668          120    15184.025    17280.775   -44149.851    1701.4218   -2324.8705   -272.84683    72.438674    62.733732    36.140668    -3895.017   -310658.14 
     560    596.94445    164176.15    72.429905    72.429905    36.136293          120    16197.506    19390.322   -41505.968    1683.4749   -1103.9762   -1441.9302    72.429905    62.726138    36.136293   -1972.7134   -310661.46 
     570    592.78426    164119.45    72.421566    72.421566    36.132132          120     17942.05    20235.801   -38664.913    667.22235   -2034.7599   -2182.7749    72.421566    62.718916    36.132132   -162.35423   -310673.66 
     580    583.62542    164066.03    72.413708    72.413708    36.128212          120    18677.439    20806.254   -34720.225    603.75724   -1467.4474   -2649.4934    72.413708    62.712111    36.128212    1587.8227   -310675.72 
     590     583.4808    164016.19    72.406374    72.406375    36.124553          120    18865.665    21029.243   -30730.979    729.45618   -1425.8769   -1873.6358    72.406374     62.70576    36.124553     3054.643   -310694.45 
     600    580.62506    163970.12    72.399595    72.399596    36.121171          120    18981.518     21764.53   -30388.291     718.7013   -1841.0005   -1599.0434    72.399595    62.699889    36.121171    3452.5856   -310707.26 
     610    575.22917    163927.69    72.393349    72.393349    36.118054          120    19574.583     20414.43   -31473.089      759.949   -1360.4249   -1878.6188    72.393349     62.69448    36.118054    2838.6414   -310715.26 
     620    571.46419    163888.44     72.38757    72.387571    36.115171          120    18423.807    20188.516   -34131.071    539.37382   -574.31449   -1136.5515     72.38757    62.689475    36.115171    1493.7507   -310726.19 
     630    572.58192    163851.77    72.382172    72.382172    36.112478          120    17777.706    19038.348   -37089.327    244.14863   -1394.0429   -703.69727    72.382172      62.6848    36.112478   -91.091107   -310745.13 
     640    566.73492     163817.1    72.377066    72.377067    36.109931          120    18702.481    19123.694   -38607.387    1014.8774   -1563.0848   -1002.2987    72.377066    62.680379    36.109931   -260.40367   -310751.48 
     650    563.72626     163784.2     72.37222    72.372221    36.107513          120    18785.647    19000.333   -38364.691    952.27238   -1451.8657   -1631.5772     72.37222    62.676182    36.107513    -192.9038   -310762.89 
     660    558.96502    163753.01    72.367626    72.367626    36.105221          120    18907.315    19552.769   -35835.459    31.386995   -1967.6884   -1856.0777    72.367626    62.672203    36.105221    874.87513   -310769.82 
     670    557.14242    163723.71     72.36331     72.36331    36.103067          120    19457.224    20364.054   -32657.197    811.22394   -1658.1229   -1490.8607     72.36331    62.668465    36.103067    2388.0271   -310782.91 
     680    546.00036     163696.6    72.359315    72.359316    36.101075          120    19762.746    20359.492   -31801.384    1840.1543   -1759.4092   -1328.6307    72.359315    62.665006    36.101075    2773.6178   -310776.92 
     690    546.54221    163671.69    72.355644    72.355645    36.099243          120    19942.856    20781.257   -31270.917    1271.6537   -901.72276   -1561.8122    72.355644    62.661827    36.099243    3151.0651   -310793.12 
     700    545.67055    163648.98    72.352298    72.352298    36.097573          120    19453.041    21092.828   -30104.706    1673.5953   -406.90277   -984.70299    72.352298    62.658929    36.097573    3480.3877   -310806.43 
     710     541.4584    163628.42    72.349268    72.349268    36.096062          120    18911.253    22019.424   -32397.487    1903.2238   -362.36259   -1507.8868    72.349268    62.656304    36.096062    2844.3965   -310812.16 
     720    538.88336    163609.71    72.346511    72.346511    36.094686          120    19161.096    21896.587   -33664.224     1488.588   -435.97506   -1255.6605    72.346511    62.653917    36.094686    2464.4865   -310821.87 
     730    536.48666    163592.63    72.343993    72.343993     36.09343          120    19423.287    20823.459   -34217.996    1768.8502   -882.77881   -1075.7245    72.343993    62.651736     36.09343    2009.5836    -310831.1 
     740    530.45044    163577.01     72.34169    72.341691    36.092281          120    20071.818     21178.96   -33344.134    2295.9294   -1335.0064    -1157.095     72.34169    62.649742    36.092281    2635.5479   -310832.84 
     750    527.60513    163562.91    72.339611    72.339612    36.091244          120    20650.736    21975.604   -32815.028    1873.1768   -1276.9387   -1734.6149    72.339611    62.647942    36.091244    3270.4376   -310839.94 
     760    522.77978    163550.46    72.337776    72.337776    36.090328          120    22309.509     22496.68   -32684.577    1530.3408   -647.70596   -2297.2162    72.337776    62.646352    36.090328    4040.5369   -310843.01 
     770    518.68192     163539.8    72.336205    72.336205    36.089544          120    22772.834     22199.11   -31662.205    907.31838    -1194.611   -1611.8673    72.336205    62.644992    36.089544    4436.5793   -310847.03 
     780    522.12959    163530.97    72.334902    72.334902    36.088894          120    22349.359    22327.595   -31472.443   -230.78786   -2095.9059   -1102.2333    72.334902    62.643863    36.088894    4401.5039   -310864.59 
     790    517.86133    163523.88    72.333856    72.333857    36.088373          120    22262.131    22633.791   -31256.688    505.63094   -1047.6631   -559.19558    72.333856    62.642958    36.088373    4546.4115   -310868.17 
     800     515.3278    163518.46    72.333058    72.333058    36.087974          120    22438.754    22691.366   -32810.773    421.19103   -716.71915    -1454.932    72.333058    62.642266    36.087974    4106.4489      -310874 
     810    516.31454    163514.53    72.332478    72.332478    36.087685          120    22460.833    21957.433   -34672.681    204.13102   -932.98223   -1634.4033    72.332478    62.641764    36.087685    3248.5283   -310886.21 
     820    511.27675    163511.79    72.332075    72.332075    36.087484          120    22155.931    21698.081   -33918.678    445.38405   -1125.0638   -1470.6144    72.332075    62.641415    36.087484    3311.7781   -310886.45 
     830    504.06648     163510.2     72.33184     72.33184    36.087367          120    22747.521     21465.26   -33386.035    519.70793   -2474.1245   -1599.0039     72.33184    62.641211    36.087367    3608.9152   -310882.23 
     840    502.30308    163509.77    72.331776    72.331777    36.087335          120    22681.392    21610.052   -33107.842    505.32858   -2110.2365   -1778.6954    72.331776    62.641156    36.087335    3727.8674   -310888.28 
     850    506.07632     163510.5    72.331883    72.331884    36.087388          120    21759.307    22916.137    -32271.01    1157.1358   -1288.8582   -1056.5305    72.331883    62.641249    36.087388    4134.8113   -310904.47 
     860    501.24649    163512.48    72.332176    72.332176    36.087534          120    22765.257    22786.891   -30713.673    1946.8892   -1511.4617   -1.9157852    72.332176    62.641502    36.087534    4946.1582   -310903.28 
     870    496.20664    163515.91    72.332681    72.332682    36.087786          120    23178.236    23449.529   -29713.102    1819.9434   -1974.9676   -76.656396    72.332681     62.64194    36.087786    5638.2207   -310901.41 
     880    496.01024    163520.89    72.333417    72.333417    36.088153          120    23711.349    22733.868   -30549.193     1652.831   -991.35859   -113.38612    72.333417    62.642577    36.088153    5298.6746   -310907.54 
     890    494.81302     163527.3    72.334362    72.334362    36.088625          120    22844.776    22126.668   -31465.667    1122.5659    -1454.759   -108.56505    72.334362    62.643396    36.088625    4501.9257   -310912.31 
     900     496.9387    163534.83    72.335472    72.335472    36.089179          120    21377.301    22087.047   -33269.758    825.98491   -1819.4056   -148.06975    72.335472    62.644357    36.089179    3398.1967   -310922.79 
     910    489.67674    163543.16      72.3367      72.3367    36.089791          120    21759.849    21865.618   -32203.182    662.85021   -1105.5681   -316.26239      72.3367     62.64542    36.089791    3807.4282   -310914.98 
     920    494.60352     163552.3    72.338047    72.338048    36.090464          120    21604.373    21753.896   -32574.287    1041.6314   -1328.8347   -1372.1179    72.338047    62.646587    36.090464     3594.661   -310929.97 
     930     490.2141    163562.23    72.339511    72.339511    36.091194          120    21861.675    22037.984   -31797.152    1119.7631   -1484.9155   -1832.3199    72.339511    62.647855    36.091194    4034.1689   -310926.72 
     940    491.06459    163572.99    72.341097    72.341098    36.091985          120    21179.284    21567.429   -31265.827    1240.5787   -1179.8089   -440.50322    72.341097    62.649228    36.091985    3826.9616   -310933.04 
     950    488.55671    163584.51    72.342796    72.342797    36.092833          120    21103.852    21306.512   -31822.966    670.05355   -1765.2977   -1194.9217    72.342796      62.6507    36.092833    3529.1326   -310933.22 
     960    491.46068    163596.68     72.34459     72.34459    36.093728          120    19820.639    21084.858   -32419.613    263.31475   -1339.1071   -708.62023     72.34459    62.652253    36.093728    2828.6283   -310942.76 
     970    483.78503    163609.27    72.346445    72.346445    36.094653          120    18866.398     20129.27   -33697.837    87.401775     -821.616   -168.66896    72.346445     62.65386    36.094653    1765.9435   -310930.92 
     980    482.74863    163621.94    72.348312    72.348313    36.095585          120    18423.763     19753.65   -34540.893   -313.63071   -1324.1116   -162.64843    72.348312    62.655477    36.095585    1212.1734   -310931.89 
     990    485.77037    163634.51    72.350165    72.350166     36.09651          120    18833.163    19939.615   -35569.133   -12.084768   -925.69553   -199.14366    72.350165    62.657082     36.09651    1067.8814   -310939.59 
    1000    486.70587    163646.99    72.352005    72.352005    36.097427          120    18920.197    20972.178    -35071.74    121.96499   -1381.1608    -316.4481    72.352005    62.658675    36.097427    1606.8783   -310942.96 
Loop time of 396.35 on 1 procs for 1000 steps with 14848 atoms

Performance: 0.218 ns/day, 110.097 hours/ns, 2.523 timesteps/s
100.0% CPU use with 1 MPI tasks x no OpenMP threads

MPI task timing breakdown:
Section |  min time  |  avg time  |  max time  |%varavg| %total
---------------------------------------------------------------
Pair    | 308.21     | 308.21     | 308.21     |   0.0 | 77.76
Bond    | 0.00059152 | 0.00059152 | 0.00059152 |   0.0 |  0.00
Kspace  | 14.434     | 14.434     | 14.434     |   0.0 |  3.64
Neigh   | 64.649     | 64.649     | 64.649     |   0.0 | 16.31
Comm    | 0.54106    | 0.54106    | 0.54106    |   0.0 |  0.14
Output  | 0.013484   | 0.013484   | 0.013484   |   0.0 |  0.00
Modify  | 8.3407     | 8.3407     | 8.3407     |   0.0 |  2.10
Other   |            | 0.1579     |            |       |  0.04

Nlocal:    14848 ave 14848 max 14848 min
Histogram: 1 0 0 0 0 0 0 0 0 0
Nghost:    46768 ave 46768 max 46768 min
Histogram: 1 0 0 0 0 0 0 0 0 0
Neighs:    1.00554e+07 ave 1.00554e+07 max 1.00554e+07 min
Histogram: 1 0 0 0 0 0 0 0 0 0

Total # of neighbors = 10055401
Ave neighs/atom = 677.223
Ave special neighs/atom = 0
Neighbor list builds = 192
Dangerous builds = 0
PPPM initialization ...
  using 12-bit tables for long-range coulomb (../kspace.cpp:321)
  G vector (1/distance) = 0.202563
  grid = 36 50 24
  stencil order = 5
  estimated absolute RMS force accuracy = 0.00100025
  estimated relative force accuracy = 6.94635e-05
  using double precision FFTs
  3d grid and FFT values/proc = 65395 43200
Setting up Verlet run ...
  Unit style    : metal
  Current step  : 0
  Time step     : 0.001
Per MPI rank memory allocation (min/avg/max) = 151.5 | 151.5 | 151.5 Mbytes
Step Temp Volume Cella Cellb Cellc CellGamma Pxx Pyy Pzz Pxy Pxz Pyz Lx Ly Lz Press PotEng 
       0    486.70587    163646.99    72.352005    72.352005    36.097427          120     18932.17    20984.016   -35065.297    122.57602   -1381.2591   -316.48622    72.352005    62.658675    36.097427    1616.9632    -310942.8 
  100000    502.39813    165293.66    72.593871    72.593872    36.218098          120    19777.818     19872.49   -39645.719    760.53636   -1902.7771   -916.02824    72.593871    62.868137    36.218098    1.5295617   -311079.69 
Loop time of 38157.2 on 1 procs for 100000 steps with 14848 atoms

Performance: 0.226 ns/day, 105.992 hours/ns, 2.621 timesteps/s
100.0% CPU use with 1 MPI tasks x no OpenMP threads

MPI task timing breakdown:
Section |  min time  |  avg time  |  max time  |%varavg| %total
---------------------------------------------------------------
Pair    | 30063      | 30063      | 30063      |   0.0 | 78.79
Bond    | 0.056486   | 0.056486   | 0.056486   |   0.0 |  0.00
Kspace  | 1449.7     | 1449.7     | 1449.7     |   0.0 |  3.80
Neigh   | 5744.8     | 5744.8     | 5744.8     |   0.0 | 15.06
Comm    | 51.426     | 51.426     | 51.426     |   0.0 |  0.13
Output  | 0.00012398 | 0.00012398 | 0.00012398 |   0.0 |  0.00
Modify  | 832.95     | 832.95     | 832.95     |   0.0 |  2.18
Other   |            | 14.95      |            |       |  0.04

Nlocal:    14848 ave 14848 max 14848 min
Histogram: 1 0 0 0 0 0 0 0 0 0
Nghost:    46482 ave 46482 max 46482 min
Histogram: 1 0 0 0 0 0 0 0 0 0
Neighs:    9.95314e+06 ave 9.95314e+06 max 9.95314e+06 min
Histogram: 1 0 0 0 0 0 0 0 0 0

Total # of neighbors = 9953142
Ave neighs/atom = 670.336
Ave special neighs/atom = 0
Neighbor list builds = 17082
Dangerous builds = 0
 
All done!
Total wall time: 10:42:35
