LAMMPS (16 Mar 2018)
Reading data file ...
  triclinic box = (0 0 0) to (9.208 7.97436 18.376) with tilt (-4.604 0 0)
  1 by 1 by 1 MPI processor grid
  reading atoms ...
  116 atoms
Finding 1-2 1-3 1-4 neighbors ...
  special bond factors lj:   0          0          0         
  special bond factors coul: 0          0          0         
  0 = max # of 1-2 neighbors
  0 = max # of 1-3 neighbors
  0 = max # of 1-4 neighbors
  1 = max # of special neighbors
Replicating atoms ...
  triclinic box = (0 0 0) to (73.664 63.7949 36.752) with tilt (-36.832 0 0)
  1 by 1 by 1 MPI processor grid
  14848 atoms
Finding 1-2 1-3 1-4 neighbors ...
  special bond factors lj:   0          0          0         
  special bond factors coul: 0          0          0         
  0 = max # of 1-2 neighbors
  0 = max # of 1-3 neighbors
  0 = max # of 1-4 neighbors
  1 = max # of special neighbors
  Time spent = 0.006495 secs
PPPM initialization ...
WARNING: System is not charge neutral, net charge = -0.2048 (../kspace.cpp:302)
  using 12-bit tables for long-range coulomb (../kspace.cpp:321)
  G vector (1/distance) = 0.201681
  grid = 36 50 24
  stencil order = 5
  estimated absolute RMS force accuracy = 0.00105653
  estimated relative force accuracy = 7.33721e-05
  using double precision FFTs
  3d grid and FFT values/proc = 65395 43200
Neighbor list info ...
  update every 1 steps, delay 0 steps, check yes
  max neighbors/atom: 2000, page size: 100000
  master list distance cutoff = 15.3
  ghost atom cutoff = 15.3
  binsize = 7.65, bins = 15 9 5
  3 neighbor lists, perpetual/occasional/extra = 3 0 0
  (1) pair morse, perpetual
      attributes: half, newton on
      pair build: half/bin/newton/tri
      stencil: half/bin/3d/newton/tri
      bin: standard
  (2) pair buck, perpetual, copy from (1)
      attributes: half, newton on
      pair build: copy
      stencil: none
      bin: none
  (3) pair lj/cut/coul/long, perpetual, copy from (1)
      attributes: half, newton on
      pair build: copy
      stencil: none
      bin: none
Setting up Verlet run ...
  Unit style    : metal
  Current step  : 0
  Time step     : 0.001
Per MPI rank memory allocation (min/avg/max) = 145.7 | 145.7 | 145.7 Mbytes
Step Temp Volume Cella Cellb Cellc CellGamma Pxx Pyy Pzz Pxy Pxz Pyz Lx Ly Lz Press PotEng 
       0         1400    172711.88       73.664    73.664001       36.752          120   -187561.12    -187815.2   -259312.98    111.53405    -35.59469    47.616189       73.664    63.794896       36.752    -211563.1   -308813.26 
      10    871.86495    172698.98    73.662166    73.662167    36.751085          120   -174380.75   -174463.61   -219112.76    139.47335    -21.69331   -388.43499    73.662166    63.793308    36.751085   -189319.04   -307804.37 
      20    1192.5124     172662.5    73.656979     73.65698    36.748497          120   -154950.22   -155694.49   -153983.83    246.64473    27.184804   -708.63041    73.656979    63.788816    36.748497   -154876.18   -308418.45 
      30    1292.8009       172607    73.649086    73.649087    36.744559          120   -107211.17   -107740.25   -75543.036   -222.39445    -861.1679   -634.50353    73.649086     63.78198    36.744559   -96831.485   -308599.81 
      40    1074.6642     172539.5    73.639484    73.639485    36.739769          120   -63336.876   -64407.856   -6249.7202   -1766.0618   -813.54502    -480.4164    73.639484    63.773665    36.739769   -44664.817   -308163.06 
      50    1213.8852    172466.14    73.629047    73.629048    36.734561          120    -46825.31   -47857.817   -5769.6033   -387.30553   -76.879592   -838.58037    73.629047    63.764626    36.734561   -33484.243   -308410.07 
      60    1402.3282    172388.54    73.618002    73.618002    36.729051          120   -45804.366   -45093.905   -54929.247   -1509.8635   -1404.8927   -915.04011    73.618002     63.75506    36.729051   -48609.173   -308752.08 
      70    1499.6026    172305.18    73.606133    73.606134    36.723129          120    -43668.01   -45675.741   -114133.56   -1965.6888   -2082.6086   -507.64818    73.606133    63.744782    36.723129   -67825.769   -308928.09 
      80    1386.6941     172213.9    73.593133    73.593134    36.716643          120   -45842.674   -48686.305   -152091.62   -1881.4179   -1697.8663   -649.61345    73.593133    63.733523    36.716643   -82206.867   -308704.95 
      90    1206.0235    172113.18    73.578784    73.578785    36.709485          120   -44767.594   -44689.992   -158716.18   -1132.9105   -2605.1751   -2205.0125    73.578784    63.721097    36.709485    -82724.59   -308350.88 
     100    1258.6951    172003.31    73.563124    73.563124    36.701671          120   -29034.645   -27753.737   -137741.97   -1399.3779   -2278.9439   -2280.1235    73.563124    63.707535    36.701671    -64843.45   -308444.92 
     110    1385.7171    171886.62    73.546485    73.546485     36.69337          120   -11852.149   -11629.092   -103942.81    -2059.228   -814.61458   -2628.4296    73.546485    63.693125     36.69337   -42474.682   -308677.32 
     120    1408.3884    171766.15    73.529298    73.529299    36.684795          120   -2879.4126   -2904.0117   -63944.434   -1554.6738    31.257668    -1575.959    73.529298    63.678241    36.684795   -23242.619   -308709.77 
     130    1363.4588    171644.56    73.511944    73.511944    36.676137          120   -1843.9815   -1560.7155   -32701.386   -97.668677   -717.53778    -1569.566    73.511944    63.663211    36.676137   -12035.361   -308614.29 
     140     1332.861    171523.52     73.49466    73.494661    36.667514          120   -5833.3731   -6069.4624   -21180.332   -433.69149   -1366.4436   -2945.0515     73.49466    63.648243    36.667514   -11027.722    -308545.6 
     150    1357.5106    171403.42    73.477503    73.477504    36.658954          120   -12038.691   -12372.894   -36384.694   -1150.0045   -1301.6221   -2033.7114    73.477503    63.633385    36.658954   -20265.426   -308583.25 
     160    1413.4294    171283.47    73.460359     73.46036    36.650401          120   -19318.641   -17174.118   -63815.249   -1393.9854    -1468.343   -3395.2184    73.460359    63.618538    36.650401   -33436.002   -308682.43 
     170    1431.4085     171162.4    73.443047    73.443048    36.641764          120   -21230.099   -21763.275    -91104.83   -1477.7248   -2949.6646    -3351.646    73.443047    63.603545    36.641764   -44699.401   -308711.26 
     180    1386.6126    171039.25    73.425428    73.425429    36.632973          120   -19005.808   -20187.103   -106985.72    69.418104   -2869.8371   -3683.3317    73.425428    63.588287    36.632973    -48726.21   -308622.11 
     190     1368.499    170913.86    73.407481    73.407481    36.624019          120   -18063.642   -16537.803   -109256.41   -90.203981   -5258.7384   -3350.8363    73.407481    63.572744    36.624019   -47952.619    -308584.5 
     200    1393.5947    170786.74    73.389277    73.389278    36.614937          120   -13799.261   -14697.235   -97284.128   -1261.9469   -5515.0067   -3345.7324    73.389277    63.556979    36.614937   -41926.875   -308628.53 
     210    1415.9343    170658.98    73.370973    73.370974    36.605805          120   -10158.903   -11229.593   -79492.946   -241.51732   -4141.1026   -3754.9075    73.370973    63.541127    36.605805   -33627.147   -308667.33 
     220    1420.7596    170531.89    73.352755    73.352755    36.596715          120   -7000.6116   -8486.2725   -65222.027   -1809.6221   -2323.0108   -4280.9398    73.352755     63.52535    36.596715    -26902.97   -308672.45 
     230    1411.7545    170406.52    73.334775    73.334776    36.587745          120   -7500.3583   -7996.3115   -56298.876   -2091.3777   -2234.6054   -6443.4466    73.334775    63.509779    36.587745   -23931.849   -308651.52 
     240    1419.1489    170283.48     73.31712     73.31712    36.578937          120   -7967.7592   -7924.6706    -53524.45   -902.67548   -890.51551   -5733.6822     73.31712    63.494489    36.578937    -23138.96   -308662.65 
     250    1427.6738    170162.98    73.299822    73.299822    36.570306          120   -9320.6003   -9447.3608    -58567.42   -822.05601   -2622.3139   -5154.8771    73.299822    63.479508    36.570306   -25778.461   -308676.53 
     260    1452.2426    170044.85    73.282857    73.282857    36.561842          120   -11492.377   -11718.187    -69111.61   -1059.4659   -3035.7299   -4391.6798    73.282857    63.464816    36.561842   -30774.058    -308723.9 
     270    1449.1969    169928.62    73.266156    73.266156     36.55351          120    -14040.93   -12660.856   -79503.794   -275.92957   -3708.3308   -4155.9673    73.266156    63.450353     36.55351    -35401.86   -308720.35 
     280     1441.531    169813.84    73.249656    73.249656    36.545278          120   -14741.462    -12593.01   -83886.791   -262.38818   -2646.7413   -3640.2677    73.249656    63.436063    36.545278   -37073.754   -308710.08 
     290    1444.9679     169700.4    73.233342    73.233342    36.537139          120   -13658.023   -8838.1572   -81784.831   -1231.7537   -2116.2924   -2574.3028    73.233342    63.421935    36.537139   -34760.337   -308721.88 
     300    1436.1443    169588.64    73.217261    73.217262    36.529116          120   -9777.9251   -6787.6697   -75195.864   -1344.7804   -2390.4231   -3584.3581    73.217261    63.408009    36.529116   -30587.153   -308712.05 
     310    1441.2994    169479.04    73.201485    73.201486    36.521245          120   -6972.9156   -5256.0428   -66712.917   -966.41411   -1882.7493   -5214.6696    73.201485    63.394347    36.521245   -26313.959    -308730.1 
     320    1440.9002    169372.05    73.186078    73.186079    36.513558          120    -6304.664   -3565.7403   -58705.978   -197.29276   -1589.4401   -5495.8326    73.186078    63.381003    36.513558   -22858.794   -308737.68 
     330    1438.9502    169267.99    73.171088    73.171088    36.506079          120   -3723.0752   -1810.6118   -52738.491    578.90161    -906.7182   -5236.9366    73.171088    63.368021    36.506079   -19424.059   -308742.73 
     340     1443.586    169167.11    73.156548    73.156549    36.498825          120   -2680.1454   -477.97742    -51945.64    1916.5868    -1940.658   -5250.5911    73.156548     63.35543    36.498825   -18367.921   -308762.79 
     350    1451.3544    169069.34    73.142452    73.142453    36.491792          120   -2656.0414   -3485.7832   -55308.873    308.10062   -428.74027   -5440.1176    73.142452    63.343222    36.491792   -20483.566   -308789.06 
     360    1445.5834    168974.25    73.128737    73.128737     36.48495          120   -4976.2535   -4098.0743   -64081.134   -86.114609   -1993.8665   -3786.5617    73.128737    63.331345     36.48495   -24385.154   -308790.58 
     370    1440.2542    168881.23    73.115315    73.115315    36.478253          120   -6299.0374   -3637.6103   -70364.254   -153.89876   -2437.9341   -3436.4601    73.115315    63.319721    36.478253   -26766.967   -308794.13 
     380    1439.0347    168789.88    73.102129     73.10213    36.471675          120   -4180.4638   -1566.0164   -68375.978   -13.232383    -3598.572   -2676.3346    73.102129    63.308302    36.471675   -24707.486    -308805.6 
     390    1442.2127    168700.21    73.089182    73.089182    36.465215          120   -2426.3329   -1223.0437   -64466.428   -1511.6807   -1200.6118    -2476.587    73.089182    63.297089    36.465215   -22705.268    -308825.8 
     400    1421.4104    168612.34     73.07649     73.07649    36.458883          120    123.42213    2584.6248   -56819.189   -935.31608    619.28678   -2498.1335     73.07649    63.286097    36.458883   -18037.047   -308797.52 
     410    1438.5556     168526.6    73.064102    73.064102    36.452702          120    2642.6981    5340.0232   -51140.333   -875.20647   -195.62491   -3327.2495    73.064102    63.275369    36.452702   -14385.871   -308843.55 
     420    1428.0429    168443.21    73.052049    73.052049    36.446689          120    3715.7526    5155.3274   -46218.417   -732.93333    1037.8382   -3506.1443    73.052049    63.264931    36.446689   -12449.112   -308835.47 
     430    1423.0678    168362.19    73.040334    73.040335    36.440845          120    4360.1507    4380.6288   -44971.261   -1193.1702    1661.4147   -3714.4604    73.040334    63.254786    36.440845   -12076.827   -308837.53 
     440    1448.8664    168283.36    73.028932    73.028932    36.435156          120    2708.1282    2482.8838   -49959.575   -1263.9151    892.30407   -2195.5957    73.028932    63.244911    36.435156   -14922.854   -308899.06 
     450    1432.6215    168206.23    73.017774    73.017774    36.429589          120    2235.2741     1628.001   -54568.348   -1422.3614    267.03966   -327.02905    73.017774    63.235247    36.429589   -16901.691   -308881.29 
     460    1422.3614    168130.41      73.0068    73.006801    36.424114          120    904.70374    2987.8768   -59713.379   -1386.2213   -1399.1426    468.06891      73.0068    63.225744    36.424114   -18606.933   -308873.07 
     470    1446.5848    168055.58    72.995969    72.995969     36.41871          120    1213.5752    5507.7551   -58609.993    -1828.928   -432.15656     -271.295    72.995969    63.216364     36.41871   -17296.221   -308932.22 
     480    1425.5989    167981.76    72.985279    72.985279    36.413376          120    4050.3415    8813.4499   -56310.945   -2511.1794   -1183.6309   -1088.2774    72.985279    63.207106    36.413376   -14482.385   -308903.64 
     490    1415.1619    167909.12    72.974757    72.974758    36.408127          120    6937.7768    10776.414   -53508.495   -1328.4097   -1749.0728   -627.11029    72.974757    63.197994    36.408127   -11931.435   -308894.91 
     500    1421.9814    167837.85    72.964431    72.964431    36.402975          120    8553.5332    9982.1731   -47966.701    322.23509   -1022.8549   -1133.9297    72.964431    63.189051    36.402975   -9810.3316   -308918.54 
     510    1417.5266    167768.05    72.954314    72.954314    36.397928          120    9172.3981    7748.9121   -44102.519   -433.98083   -308.96456   -2633.0708    72.954314     63.18029    36.397928   -9060.4029   -308919.86 
     520    1420.0689    167699.69    72.944404    72.944405    36.392984          120    10974.141    8394.0326    -42893.48   -1745.3378   -606.74332   -1993.7965    72.944404    63.171708    36.392984   -7841.7687   -308935.58 
     530    1420.3106    167632.79    72.934703    72.934703    36.388143          120    9943.4024    10759.615   -45093.472   -1493.0433   -673.35141    135.33204    72.934703    63.163306    36.388143   -8130.1517   -308945.67 
     540    1418.6916    167567.21    72.925191    72.925192    36.383398          120     9262.242    10787.885   -45916.373   -524.67288   -1306.9139     856.6842    72.925191    63.155069    36.383398    -8622.082   -308953.07 
     550    1415.2689     167502.8    72.915846    72.915847    36.378736          120    9338.9564      11206.3   -47757.994   -161.67982   -756.61062    1317.4201    72.915846    63.146976    36.378736   -9070.9125   -308955.92 
     560    1416.7831    167439.43     72.90665     72.90665    36.374147          120    10386.811    11978.618    -49013.99   -761.81589   -734.42375    1627.9767     72.90665    63.139011    36.374147   -8882.8536   -308968.75 
     570    1405.1215    167377.03    72.897592    72.897593    36.369628          120    11428.376    12665.661   -49551.093   -1152.5751    46.774797    103.86866    72.897592    63.131167    36.369628   -8485.6854   -308956.63 
     580    1414.3003     167315.6    72.888672    72.888672    36.365178          120    11039.863    13596.978   -46769.786    234.74418    178.33005   -529.03819    72.888672    63.123442    36.365178   -7377.6485   -308983.41 
     590    1410.4554    167255.19      72.8799      72.8799    36.360801          120    12261.845     14794.25   -44425.229    519.30884   -616.60468   -1055.9505      72.8799    63.115845    36.360801   -5789.7113    -308984.7 
     600    1413.1235     167195.9    72.871286    72.871286    36.356504          120    10365.603    13677.613   -43132.763     705.6338   -194.69288   -54.471978    72.871286    63.108385    36.356504   -6363.1826   -308999.04 
     610     1417.119    167137.63     72.86282    72.862821     36.35228          120    12382.706     14028.71   -42487.485    595.13659   -1740.8665   -1802.5585     72.86282    63.101054     36.35228   -5358.6897   -309015.91 
     620    1388.9921    167080.42    72.854505    72.854506    36.348132          120    13479.142    13122.873   -42353.637   -411.89735   -2343.3542   -1076.4902    72.854505    63.093853    36.348132   -5250.5408   -308970.54 
     630    1404.1762    167024.24    72.846339    72.846339    36.344057          120    12690.404     13729.73   -40394.644   -65.249046   -965.25042   -1212.5649    72.846339    63.086781    36.344057   -4658.1699   -309007.66 
     640    1412.7813     166969.1    72.838322    72.838322    36.340058          120    13321.015     14705.08   -41776.727    496.75151   -1329.5582   -831.58624    72.838322    63.079838    36.340058    -4583.544   -309031.74 
     650    1401.6915    166914.99    72.830452    72.830453    36.336131          120    14950.164    14710.464   -40245.022   -251.61797   -1978.3914   -327.82799    72.830452    63.073022    36.336131   -3528.1311   -309018.72 
     660      1394.83    166861.93    72.822735    72.822735    36.332281          120    14762.867    15211.982    -40356.54    153.35315   -1305.2904    181.42431    72.822735    63.066339    36.332281   -3460.5636   -309011.93 
     670    1406.0895     166809.9    72.815164    72.815165    36.328504          120    14780.997    15895.037   -42214.262   -461.46611    -940.6422     -631.117    72.815164    63.059782    36.328504   -3846.0759   -309040.19 
     680    1406.3309    166758.84    72.807735    72.807735    36.324797          120      16029.2    18931.212   -40918.817    26.040716   -579.41759   -873.19417    72.807735    63.053348    36.324797   -1986.1349   -309047.99 
     690    1400.4066     166708.9    72.800465    72.800466    36.321171          120    16319.822    18715.464    -38837.04     763.7614   -883.46743   -810.73392    72.800465    63.047053    36.321171   -1267.2513   -309044.15 
     700    1398.5527    166660.14    72.793367    72.793368    36.317629          120    16759.003    18734.211   -36953.397   -689.47584   -2190.0202   -1667.7071    72.793367    63.040906    36.317629    -486.7279   -309046.57 
     710    1397.4233    166612.59    72.786443    72.786443    36.314174          120    17169.928    17028.341   -37700.545    -2171.142   -2082.1376   -174.45961    72.786443    63.034909    36.314174   -1167.4254   -309050.37 
     720    1395.6782    166566.13    72.779677    72.779678    36.310799          120    18610.872    16012.208   -38848.377   -164.36587   -1267.5448   -345.33697    72.779677     63.02905    36.310799   -1408.4322   -309051.85 
     730    1408.4685    166520.71    72.773061    72.773062    36.307498          120      18596.4    17407.336   -38957.052   -65.597042   -2064.9479   -1673.5001    72.773061     63.02332    36.307498   -984.43889   -309082.31 
     740     1397.175    166476.35    72.766599    72.766599    36.304274          120    19187.658    18425.952   -37633.277   -1764.3209   -1900.4344   -2430.8386    72.766599    63.017724    36.304274   -6.5557748   -309066.93 
     750    1392.2613    166433.12    72.760299      72.7603    36.301131          120    19936.536    19238.797   -36662.282   -466.10072   -1072.0759   -38.463314    72.760299    63.012268    36.301131    837.68378   -309062.59 
     760    1391.8635    166391.04    72.754167    72.754168    36.298072          120    18604.783    19421.188   -36799.962    -431.8478   -1235.8835   -285.45982    72.754167    63.006958    36.298072    408.67002    -309066.6 
     770    1392.7019    166350.07    72.748195    72.748195    36.295092          120     17483.13    19189.461    -36515.43    367.69192    -818.5271   -507.74556    72.748195    63.001786    36.295092    52.387041   -309073.39 
     780    1400.1765    166310.14    72.742374    72.742374    36.292188          120    17520.325    20460.753   -35976.079    317.42299   -151.87863   -1166.3651    72.742374    62.996744    36.292188    668.33295   -309091.96 
     790    1402.1735    166271.25    72.736704    72.736704    36.289359          120    19109.836    20113.416   -38676.646    645.12461   -1139.3579    81.351848    72.736704    62.991834    36.289359    182.20206   -309099.53 
     800    1395.8337    166233.34    72.731175    72.731175      36.2866          120    18860.213    20004.996   -37706.529    50.967724   -1270.2445    339.51392    72.731175    62.987046      36.2866    386.22679   -309092.46 
     810     1395.927    166196.42     72.72579    72.725791    36.283914          120    20354.494     22107.41   -33357.192    20.627278    666.70448   -564.14184     72.72579    62.982383    36.283914    3034.9041   -309096.28 
     820    1396.3963    166160.72    72.720583    72.720584    36.281316          120    19754.378    22673.034   -30895.134   -27.468688    2353.4327   -396.94344    72.720583    62.977873    36.281316    3844.0926    -309100.5 
     830    1397.5601    166126.33    72.715565    72.715566    36.278813          120    22024.955    24524.971   -33658.247    371.10467    1555.1835   -114.30322    72.715565    62.973528    36.278813    4297.2263   -309106.03 
     840    1398.3183    166093.25    72.710739     72.71074    36.276405          120    23360.437    24826.439   -33997.994   -363.88651    18.256982   -1113.1242    72.710739    62.969348    36.276405    4729.6271   -309111.27 
     850    1389.1468    166061.48    72.706102    72.706103    36.274092          120    21404.556    23894.408   -35738.135   -330.44547   -543.59255   -2260.6849    72.706102    62.965332    36.274092    3186.9431   -309097.05 
     860    1391.3559    166030.84     72.70163    72.701631     36.27186          120     20241.72    23514.896   -37586.711   -349.94024   -2268.5702    -3130.796     72.70163    62.961459     36.27186    2056.6351    -309104.5 
     870    1390.4472    166001.19    72.697302    72.697303    36.269701          120    22731.914    23913.889   -37194.996   -5.1760166    -2709.819   -3112.1822    72.697302    62.957711    36.269701    3150.2689   -309104.17 
     880    1392.2761    165972.58    72.693126    72.693127    36.267617          120    22694.307    23707.166   -34410.518   -768.26771   -613.91825   -2168.1143    72.693126    62.954095    36.267617    3996.9852   -309109.87 
     890    1403.0145    165945.07    72.689109     72.68911    36.265613          120    21596.455    22355.011   -34675.321   -213.51239   -976.41518   -1876.0814    72.689109    62.950616    36.265613    3092.0482   -309132.98 
     900    1389.0428    165918.57     72.68524    72.685241    36.263683          120    22001.178    23973.745   -34461.933    608.62481   -804.86376   -439.41494     72.68524    62.947265    36.263683    3837.6634   -309108.48 
     910    1391.4531    165893.14    72.681526    72.681527     36.26183          120    22393.845    26257.605   -30627.926   -123.04738   -1180.7745    -426.7243    72.681526    62.944049     36.26183    6007.8412   -309114.17 
     920    1386.1928    165868.95    72.677993    72.677994    36.260067          120    23273.697    26233.129   -30664.766   -815.81818   -865.20878   -508.18529    72.677993    62.940989    36.260067     6280.687   -309105.28 
     930    1392.8043    165846.02    72.674643    72.674644    36.258396          120    23890.022    24556.895   -32698.548    1224.6309   -1591.5084   -1140.4817    72.674643    62.938088    36.258396    5249.4564    -309119.4 
     940    1394.6506     165824.2    72.671457    72.671458    36.256806          120     23632.26    24263.539   -31853.385    849.60457   -1298.5261   -2248.6549    72.671457    62.935329    36.256806    5347.4713   -309122.36 
     950    1399.1117    165803.51    72.668434    72.668434    36.255298          120     23978.71     26271.15   -31316.512    774.84223    -1304.897   -3170.2531    72.668434     62.93271    36.255298    6311.1159   -309130.94 
     960    1384.0027       165784    72.665584    72.665585    36.253876          120    25779.839    27844.347   -29578.069   -1000.2409   -786.97204   -3137.9199    72.665584    62.930243    36.253876    8015.3723   -309102.41 
     970    1406.3279     165765.8    72.662924    72.662924    36.252549          120    25257.853    28104.679   -32203.839   -881.97586   -938.87742   -3652.4724    72.662924    62.927939    36.252549    7052.8975   -309145.24 
     980    1391.2577    165748.82    72.660443    72.660444    36.251311          120    25942.376    27702.406   -32386.631   -324.90945   -918.33144   -2793.0321    72.660443     62.92579    36.251311    7086.0504   -309115.89 
     990      1400.33    165733.01    72.658133    72.658134    36.250159          120    26712.518    26729.558   -30707.336    357.30219   -1114.1523   -1250.8347    72.658133     62.92379    36.250159    7578.2465   -309132.94 
    1000    1410.9454     165718.4    72.655998    72.655999    36.249094          120    27566.277    25975.314    -28041.24    605.54478   -1925.0295   -1882.9924    72.655998    62.921941    36.249094     8500.117   -309153.88 
Loop time of 419.015 on 1 procs for 1000 steps with 14848 atoms

Performance: 0.206 ns/day, 116.393 hours/ns, 2.387 timesteps/s
100.0% CPU use with 1 MPI tasks x no OpenMP threads

MPI task timing breakdown:
Section |  min time  |  avg time  |  max time  |%varavg| %total
---------------------------------------------------------------
Pair    | 304.65     | 304.65     | 304.65     |   0.0 | 72.71
Bond    | 0.00061226 | 0.00061226 | 0.00061226 |   0.0 |  0.00
Kspace  | 14.381     | 14.381     | 14.381     |   0.0 |  3.43
Neigh   | 90.898     | 90.898     | 90.898     |   0.0 | 21.69
Comm    | 0.62391    | 0.62391    | 0.62391    |   0.0 |  0.15
Output  | 0.013526   | 0.013526   | 0.013526   |   0.0 |  0.00
Modify  | 8.2834     | 8.2834     | 8.2834     |   0.0 |  1.98
Other   |            | 0.1614     |            |       |  0.04

Nlocal:    14848 ave 14848 max 14848 min
Histogram: 1 0 0 0 0 0 0 0 0 0
Nghost:    46483 ave 46483 max 46483 min
Histogram: 1 0 0 0 0 0 0 0 0 0
Neighs:    9.92818e+06 ave 9.92818e+06 max 9.92818e+06 min
Histogram: 1 0 0 0 0 0 0 0 0 0

Total # of neighbors = 9928178
Ave neighs/atom = 668.654
Ave special neighs/atom = 0
Neighbor list builds = 272
Dangerous builds = 0
PPPM initialization ...
  using 12-bit tables for long-range coulomb (../kspace.cpp:321)
  G vector (1/distance) = 0.202358
  grid = 36 50 24
  stencil order = 5
  estimated absolute RMS force accuracy = 0.00101308
  estimated relative force accuracy = 7.03547e-05
  using double precision FFTs
  3d grid and FFT values/proc = 65395 43200
Setting up Verlet run ...
  Unit style    : metal
  Current step  : 0
  Time step     : 0.001
Per MPI rank memory allocation (min/avg/max) = 149.2 | 149.2 | 149.2 Mbytes
Step Temp Volume Cella Cellb Cellc CellGamma Pxx Pyy Pzz Pxy Pxz Pyz Lx Ly Lz Press PotEng 
       0    1410.9454     165718.4    72.655998    72.655999    36.249094          120    27573.554    25982.522   -28040.141    605.64742   -1924.8062   -1882.9561    72.655998    62.921941    36.249094    8505.3117    -309153.8 
  100000    1384.7571    168534.31    73.065216    73.065216    36.453258          120    15446.713    17093.974   -36563.951   -560.00808   -2343.9975    422.46718    73.065216    63.276333    36.453258   -1341.0879   -309288.03 
Loop time of 40911.5 on 1 procs for 100000 steps with 14848 atoms

Performance: 0.211 ns/day, 113.643 hours/ns, 2.444 timesteps/s
100.0% CPU use with 1 MPI tasks x no OpenMP threads

MPI task timing breakdown:
Section |  min time  |  avg time  |  max time  |%varavg| %total
---------------------------------------------------------------
Pair    | 29534      | 29534      | 29534      |   0.0 | 72.19
Bond    | 0.056754   | 0.056754   | 0.056754   |   0.0 |  0.00
Kspace  | 1430       | 1430       | 1430       |   0.0 |  3.50
Neigh   | 9040.7     | 9040.7     | 9040.7     |   0.0 | 22.10
Comm    | 61.891     | 61.891     | 61.891     |   0.0 |  0.15
Output  | 0.00012898 | 0.00012898 | 0.00012898 |   0.0 |  0.00
Modify  | 829.49     | 829.49     | 829.49     |   0.0 |  2.03
Other   |            | 15.78      |            |       |  0.04

Nlocal:    14848 ave 14848 max 14848 min
Histogram: 1 0 0 0 0 0 0 0 0 0
Nghost:    46164 ave 46164 max 46164 min
Histogram: 1 0 0 0 0 0 0 0 0 0
Neighs:    9.76158e+06 ave 9.76158e+06 max 9.76158e+06 min
Histogram: 1 0 0 0 0 0 0 0 0 0

Total # of neighbors = 9761575
Ave neighs/atom = 657.434
Ave special neighs/atom = 0
Neighbor list builds = 26961
Dangerous builds = 0
 
All done!
Total wall time: 11:28:52
