LAMMPS (16 Mar 2018)
Reading data file ...
  triclinic box = (0 0 0) to (9.208 7.97436 18.376) with tilt (-4.604 0 0)
  1 by 1 by 1 MPI processor grid
  reading atoms ...
  116 atoms
Finding 1-2 1-3 1-4 neighbors ...
  special bond factors lj:   0          0          0         
  special bond factors coul: 0          0          0         
  0 = max # of 1-2 neighbors
  0 = max # of 1-3 neighbors
  0 = max # of 1-4 neighbors
  1 = max # of special neighbors
Replicating atoms ...
  triclinic box = (0 0 0) to (73.664 63.7949 36.752) with tilt (-36.832 0 0)
  1 by 1 by 1 MPI processor grid
  14848 atoms
Finding 1-2 1-3 1-4 neighbors ...
  special bond factors lj:   0          0          0         
  special bond factors coul: 0          0          0         
  0 = max # of 1-2 neighbors
  0 = max # of 1-3 neighbors
  0 = max # of 1-4 neighbors
  1 = max # of special neighbors
  Time spent = 0.00328779 secs
PPPM initialization ...
WARNING: System is not charge neutral, net charge = -0.2048 (../kspace.cpp:302)
  using 12-bit tables for long-range coulomb (../kspace.cpp:321)
  G vector (1/distance) = 0.201681
  grid = 36 50 24
  stencil order = 5
  estimated absolute RMS force accuracy = 0.00105653
  estimated relative force accuracy = 7.33721e-05
  using double precision FFTs
  3d grid and FFT values/proc = 65395 43200
Neighbor list info ...
  update every 1 steps, delay 0 steps, check yes
  max neighbors/atom: 2000, page size: 100000
  master list distance cutoff = 15.3
  ghost atom cutoff = 15.3
  binsize = 7.65, bins = 15 9 5
  3 neighbor lists, perpetual/occasional/extra = 3 0 0
  (1) pair morse, perpetual
      attributes: half, newton on
      pair build: half/bin/newton/tri
      stencil: half/bin/3d/newton/tri
      bin: standard
  (2) pair buck, perpetual, copy from (1)
      attributes: half, newton on
      pair build: copy
      stencil: none
      bin: none
  (3) pair lj/cut/coul/long, perpetual, copy from (1)
      attributes: half, newton on
      pair build: copy
      stencil: none
      bin: none
Setting up Verlet run ...
  Unit style    : metal
  Current step  : 0
  Time step     : 0.001
Per MPI rank memory allocation (min/avg/max) = 145.7 | 145.7 | 145.7 Mbytes
Step Temp Volume Cella Cellb Cellc CellGamma Pxx Pyy Pzz Pxy Pxz Pyz Lx Ly Lz Press PotEng 
       0          700    172711.88       73.664    73.664001       36.752          120   -195948.71    -196071.9   -267592.79    56.417001   -17.799522    23.807274       73.664    63.794896       36.752   -219871.13   -308813.26 
      10    549.05859    172684.74    73.660142    73.660143    36.750075          120   -192620.26   -192724.58   -238462.92    149.32524   -30.503755   -265.51596    73.660142    63.791555    36.750075   -207935.92   -308539.77 
      20    844.39777    172606.02    73.648947    73.648948     36.74449          120   -182808.65   -182761.04   -175531.27    78.780829    -231.9807   -567.48311    73.648947     63.78186     36.74449   -180366.99    -309119.4 
      30    904.15207     172483.1     73.63146    73.631461    36.735766          120   -143596.44   -143620.26   -95697.297   -157.74746   -838.80022   -558.57653     73.63146    63.766716    36.735766      -127638   -309249.67 
      40    678.75724    172329.31    73.609569     73.60957    36.724844          120   -95068.141   -95700.193   -18140.111   -1181.3971   -1124.2737   -516.24517    73.609569    63.747757    36.724844   -69636.148   -308824.09 
      50    790.90356    172158.92      73.5853    73.585301    36.712736          120   -66105.425   -67213.798   -2208.7904   -433.97477    -787.3471   -633.38404      73.5853     63.72674    36.712736   -45176.005   -309040.38 
      60    1033.7255    171978.95    73.559651    73.559651    36.699939          120   -56719.207   -56253.861    -49971.58   -1175.8357   -1750.8223   -673.94835    73.559651    63.704527    36.699939   -54314.883   -309512.58 
      70    1158.4802    171788.94     73.53255    73.532551    36.686418          120   -50930.605   -51597.346   -114182.28   -1955.0843   -2363.3258   -858.53706     73.53255    63.681057    36.686418   -72236.744   -309776.56 
      80    1031.6428    171586.15    73.503605    73.503606    36.671977          120   -49086.989   -51250.655    -157575.4   -1996.9185    -2252.375    -143.9127    73.503605     63.65599    36.671977   -85971.013   -309563.71 
      90    807.88919    171369.19    73.472612    73.472612    36.656514          120   -47124.254   -47314.511   -168219.08   -1851.0036    -2786.527   -1524.2894    73.472612    63.629149    36.656514   -87552.616   -309159.07 
     100    840.11921    171140.12    73.439859     73.43986    36.640173          120    -31406.92   -31055.619   -147069.04   -1671.1416   -2514.2877   -1640.0292    73.439859    63.600784    36.640173   -69843.861   -309243.75 
     110    992.52404    170905.42    73.406272    73.406273    36.623416          120   -12622.457   -12778.794    -108618.3   -1730.4929   -833.68525   -1974.1978    73.406272    63.571697    36.623416   -44673.182    -309563.4 
     120     1012.556    170673.25    73.373017    73.373018    36.606824          120   -2120.4052   -2304.8237   -63805.935   -1636.7712   -376.45861   -1582.4901    73.373017    63.542897    36.606824   -22743.721   -309632.03 
     130    926.78689    170450.44    73.341075    73.341076    36.590888          120   -1855.7309   -752.49436   -27865.887   -1211.6736   -967.41663    -1850.189    73.341075    63.515235    36.590888   -10158.037   -309495.24 
     140    886.89915    170240.91     73.31101    73.311011    36.575888          120   -5634.7081   -5702.6793   -13962.613   -740.13186   -835.76103    -2235.459     73.31101    63.489198    36.575888   -8433.3334   -309440.96 
     150    920.42118    170045.21    73.282909    73.282909    36.561868          120   -12503.198   -11389.828   -31696.921   -1931.0275   -710.25878   -1596.4226    73.282909    63.464861    36.561868   -18529.982   -309529.48 
     160    980.56578    169860.87    73.256418    73.256418    36.548651          120   -20318.005   -19767.867   -63461.407   -1781.1019   -1318.8167   -2577.6532    73.256418    63.441919    36.548651    -34515.76   -309674.54 
     170    983.55887    169684.03    73.230986    73.230987    36.535963          120    -24517.23   -23787.242   -91879.648   -1309.0999   -1996.5756   -2616.8844    73.230986    63.419895    36.535963    -46728.04   -309713.21 
     180    914.67841    169511.66    73.206182    73.206182    36.523588          120    -22172.52   -21290.858   -110504.93   -1060.8561   -2410.9658   -2319.8929    73.206182    63.398414    36.523588   -51322.769   -309613.87 
     190    886.82407    169342.47    73.181818    73.181819    36.511433          120    -18689.89   -16972.915   -111868.94   -919.44187     -2925.01   -2153.7445    73.181818    63.377314    36.511433   -49177.249   -309590.71 
     200    914.12338    169176.73    73.157934    73.157935    36.499517          120   -14125.949   -14486.888   -95770.167   -1545.7369   -2317.2421   -1573.4911    73.157934     63.35663    36.499517   -41461.002   -309672.45 
     210    941.02723    169015.73    73.134721    73.134721    36.487935          120   -10076.219   -10877.919   -74543.856    -1850.512   -2256.3818   -1568.2615    73.134721    63.336527    36.487935   -31832.665   -309754.26 
     220    922.89649       168861    73.112396    73.112396    36.476797          120   -7577.8662   -7367.7384   -57557.767   -2173.6137   -1834.2728    -2922.493    73.112396    63.317193    36.476797    -24167.79   -309748.73 
     230     904.2556    168713.34    73.091078    73.091079    36.466161          120   -7908.7323   -8083.6921   -49534.187   -1403.2697   -718.74712    -3800.023    73.091078    63.298731    36.466161   -21842.204   -309739.79 
     240    902.32359    168572.35    73.070712    73.070713       36.456          120    -10217.65   -9408.1866   -49424.242   -1158.4009   -1556.3645   -4468.3419    73.070712    63.281094       36.456   -23016.693   -309764.43 
     250    917.93408    168436.75    73.051114    73.051114    36.446222          120    -13675.67   -12575.685   -59293.948   -531.68407   -1894.9824   -4417.9171    73.051114    63.264121    36.446222   -28515.101   -309823.22 
     260    929.68791    168304.53    73.031995    73.031996    36.436684          120   -15686.744   -14616.003   -71355.925    -694.8904   -2851.3723   -4375.6417    73.031995    63.247564    36.436684   -33886.224   -309876.42 
     270    909.01614    168173.85    73.013088    73.013088    36.427251          120   -15249.631   -15246.106   -81217.629   -179.62922   -2207.5738    -3870.325    73.013088    63.231189    36.427251   -37237.789   -309868.07 
     280    888.19157    168043.42    72.994207    72.994208    36.417831          120   -14864.334   -14588.756   -85699.185    221.60652   -1723.3581   -2913.3226    72.994207    63.214838    36.417831   -38384.092   -309858.31 
     290    887.70169    167912.67    72.975271    72.975271    36.408383          120   -11446.099   -10883.273   -81175.671    406.38258   -2028.8364   -2810.2376    72.975271    63.198439    36.408383   -34501.681   -309885.82 
     300    893.04455    167782.13    72.956356    72.956356    36.398946          120   -6286.5678   -6645.7946   -70828.784    -486.0752   -2305.4197   -3137.0893    72.956356    63.182058    36.398946   -27920.382   -309923.98 
     310    884.52482    167652.97     72.93763     72.93763    36.389604          120   -3348.9107   -4274.9663   -58804.816   -955.33716   -1855.2538   -2184.9651     72.93763    63.165841    36.389604   -22142.898   -309935.61 
     320    876.40152    167526.16    72.919236    72.919236    36.380427          120   -3045.5121   -3018.6967   -49138.608    15.756361   -801.93236   -2072.7803    72.919236    63.149911    36.380427   -18400.939   -309947.28 
     330    871.26969    167402.21    72.901247    72.901248    36.371452          120   -2476.4412   -3136.9781   -45759.401    314.47246   -1001.4245   -2671.0708    72.901247    63.134333    36.371452   -17124.273    -309964.1 
     340     868.5526    167281.08    72.883659     72.88366    36.362677          120   -3919.2045   -3112.6069   -49136.988     1062.791   -802.97068   -3112.4863    72.883659    63.119101    36.362677   -18722.933   -309984.89 
     350    872.49745    167162.09    72.866374    72.866375    36.354053          120   -6809.2081   -3668.3557   -58536.083    1222.6131   -594.81643   -2449.1017    72.866374    63.104132    36.354053   -23004.549   -310019.06 
     360    864.13669    167044.14    72.849232    72.849232    36.345501          120   -6740.9931    -3605.944   -68039.181    723.40948   -1383.2413   -2217.5187    72.849232    63.089286    36.345501   -26128.706   -310029.99 
     370    851.94421    166926.42    72.832115    72.832115    36.336961          120   -5234.1329   -3002.9474   -70615.338   -521.40355   -1881.9588   -2605.1112    72.832115    63.074462    36.336961    -26284.14   -310032.98 
     380    848.79086    166808.81    72.815005    72.815006    36.328425          120   -3742.6726   -1324.9963   -68571.608    -986.4642   -2560.9142   -2430.7785    72.815005    63.059645    36.328425   -24546.426    -310052.4 
     390    848.15772    166691.66    72.797956    72.797957    36.319919          120   -1260.3522    564.04141   -62738.066   -1120.9521   -1855.3088    -2892.523    72.797956     63.04488    36.319919   -21144.792   -310076.59 
     400    842.95541    166575.72    72.781073    72.781074    36.311496          120    1086.7421    2158.0423   -53883.435   -645.92448   -1257.4783   -2745.9399    72.781073    63.030259    36.311496    -16879.55   -310091.28 
     410    840.49527    166461.84    72.764485    72.764485    36.303219          120    2860.5802    3265.2051   -45557.155    427.06133   -1317.5111   -1355.4124    72.764485    63.015893    36.303219    -13143.79   -310111.57 
     420     828.2536    166350.76    72.748297    72.748297    36.295143          120    2686.2088    5390.2818   -41494.409    874.05531   -433.85057   -37.759309    72.748297    63.001874    36.295143   -11139.306   -310111.83 
     430    825.89319    166242.78    72.732552    72.732553    36.287288          120    2788.5761     5969.798   -44040.035    107.64469   -397.47897   -1706.1173    72.732552    62.988239    36.287288   -11760.553   -310130.69 
     440    833.72325    166137.61    72.717211    72.717212    36.279634          120    1140.9871    4158.1815   -49183.298    150.07962   -1553.2569   -632.81375    72.717211    62.974953    36.279634   -14628.043    -310168.9 
     450    831.66993    166034.55    72.702172    72.702173    36.272131          120    1699.2805    2186.8222   -54284.901   -191.96241    -464.1746    -859.4176    72.702172    62.961929    36.272131   -16799.599    -310188.8 
     460    814.26975    165933.04    72.687352    72.687353    36.264737          120    4090.5017    3151.8421   -57677.672    188.14498    104.88474   -904.26459    72.687352    62.949094    36.264737   -16811.776   -310178.83 
     470    797.06473       165833    72.672742    72.672743    36.257448          120    6854.7498    6608.3134   -55924.904    1813.9787    68.997343   -1239.7622    72.672742    62.936442    36.257448   -14153.947   -310167.74 
     480    805.00649    165734.93    72.658414    72.658415    36.250299          120    8372.0517    9689.9951   -52109.046    1667.7385    12.492475   -1073.5807    72.658414    62.924033    36.250299       -11349    -310204.7 
     490    797.04183    165639.39    72.644449    72.644449    36.243332          120    10102.328    11715.658   -46937.566    1333.1552   -17.790185   -1101.2639    72.644449    62.911939    36.243332   -8373.1932   -310210.52 
     500    791.42196    165546.89    72.630924    72.630925    36.236584          120    11003.282    12683.616   -41722.148     611.0258    325.09661   -1532.2184    72.630924    62.900226    36.236584     -6011.75    -310219.7 
     510    791.09527    165457.81    72.617894    72.617894    36.230083          120    11137.202    13293.145    -40652.33    643.76839   -237.89823   -474.90634    72.617894    62.888941    36.230083   -5407.3276   -310238.57 
     520    789.86077    165372.12    72.605356    72.605357    36.223828          120    10059.785    12861.645   -39344.116    1443.8912    -249.4124   -60.063516    72.605356    62.878084    36.223828   -5474.2288   -310256.46 
     530    791.62414    165289.66    72.593286    72.593286    36.217806          120    10963.438    13138.585    -41841.77    1669.1895   -16.893619     1105.579    72.593286     62.86763    36.217806   -5913.2488   -310279.63 
     540    787.61872    165210.15    72.581645    72.581646    36.211998          120    12056.385    14142.283   -44146.454    1187.0479    114.57991    1221.4242    72.581645    62.857549    36.211998   -5982.5954   -310291.08 
     550    777.10007    165133.42    72.570406    72.570406    36.206391          120    14462.006    15135.737   -46672.194    261.20386   -149.79909    1229.0816    72.570406    62.847816    36.206391   -5691.4836   -310290.78 
     560    774.58107    165059.36    72.559555    72.559555    36.200977          120    13751.293    16311.288   -45407.953    624.56308    238.09356    505.72816    72.559555    62.838418    36.200977    -5115.124   -310305.19 
     570    767.23483    164987.95    72.549091    72.549091    36.195756          120    14553.841    17099.672   -44145.894    977.09525   -760.22525    26.212571    72.549091    62.829356    36.195756   -4164.1271   -310308.61 
     580    762.52465    164919.27    72.539022    72.539022    36.190733          120    15390.318    17677.363   -41172.519    713.78727   -45.909645   -562.40428    72.539022    62.820636    36.190733   -2701.6126   -310317.51 
     590    759.96743    164853.45    72.529371    72.529372    36.185918          120    16486.066    17863.112   -36264.495    1678.0276     339.4273   -1177.4314    72.529371    62.812279    36.185918   -638.43928   -310329.88 
     600    759.33623    164790.78    72.520179    72.520179    36.181332          120    17512.836    18001.353   -34522.521     2026.114    969.48238   -1698.0813    72.520179    62.804318    36.181332    330.55611   -310345.88 
     610    752.14065    164731.28     72.51145     72.51145    36.176976          120     16270.11    19450.025   -36161.044    1149.7405   -455.45795   -579.15903     72.51145    62.796758    36.176976   -146.96983   -310348.06 
     620    757.18661    164674.69    72.503145    72.503146    36.172833          120    16134.101    20386.772   -38199.847    595.56379    -2107.012    352.84758    72.503145    62.789566    36.172833   -559.65777   -310373.65 
     630    754.13819    164620.74    72.495227    72.495228    36.168883          120     16182.92    19335.751   -39088.193    406.70898   -2662.5057    802.64836    72.495227    62.782709    36.168883   -1189.8406   -310383.45 
     640    749.48695    164569.14    72.487651    72.487652    36.165103          120    15759.954    17435.531    -40507.69     517.4172   -2843.5928    903.53893    72.487651    62.776148    36.165103   -2437.4015   -310390.83 
     650    746.75121    164519.48    72.480359     72.48036    36.161465          120    15481.982    17331.248   -41326.261    458.95433   -1744.2566    1094.6267    72.480359    62.769833    36.161465    -2837.677   -310401.69 
     660    745.14694    164471.59    72.473326    72.473327    36.157956          120    16602.185    19019.126   -40781.219     97.61194   -941.08946    651.51655    72.473326    62.763742    36.157956   -1719.9692   -310414.36 
     670    728.04361    164425.61    72.466572    72.466572    36.154586          120    16836.492    21175.957   -37366.502    964.29676   -944.11623    625.71889    72.466572    62.757893    36.154586    215.31588   -310396.25 
     680    734.46087    164381.79    72.460134    72.460135    36.151374          120    16951.679    21257.401    -34366.33     1440.524   -393.30591    -88.04764    72.460134    62.752317    36.151374    1280.9164   -310422.77 
     690    731.83489    164340.29    72.454035    72.454036    36.148332          120    17928.344    21318.683   -31690.528     1699.356   -487.11205   -1023.3228    72.454035    62.747036    36.148332     2518.833   -310431.12 
     700    732.37333    164301.22    72.448294    72.448294    36.145467          120    18262.493    21368.457   -31719.253    1747.5849    -1674.773    -1481.782    72.448294    62.742063    36.145467    2637.2321   -310445.42 
     710     728.9593    164264.52    72.442898    72.442899    36.142775          120     17705.92    22213.498   -31437.664    1181.8355   -1577.6638   -16.583241    72.442898    62.737391    36.142775    2827.2511   -310451.95 
     720    721.31252    164230.06    72.437832    72.437833    36.140248          120    18079.086    22223.199   -32929.358    1123.1782   -1680.8799   -92.512473    72.437832    62.733004    36.140248    2457.6424   -310449.27 
     730    718.24507    164197.69    72.433072    72.433073    36.137873          120    19443.586    23962.144   -33282.028    1261.1621   -809.77268    810.04787    72.433072    62.728881    36.137873    3374.5674   -310455.44 
     740    719.49316    164167.43    72.428622    72.428623    36.135653          120    20213.548     24625.14   -33644.305    1024.3173   -644.28099    2302.1894    72.428622    62.725028    36.135653    3731.4611      -310470 
     750    714.02111    164139.29    72.424485    72.424485    36.133589          120    20477.893    24531.735   -33354.376    846.68209   -617.05726    1986.4915    72.424485    62.721444    36.133589    3885.0839   -310471.18 
     760    709.68506     164113.2    72.420647    72.420647    36.131674          120    19826.639    24635.462   -33647.032    1009.0583   -144.62516    1745.9801    72.420647     62.71812    36.131674    3605.0231   -310473.71 
     770    711.44191    164089.01    72.417088    72.417089    36.129898          120    21045.337    24430.817   -33294.731    1663.1919   -528.93161    1165.9647    72.417088    62.715038    36.129898    4060.4743   -310487.68 
     780    708.28576     164066.7    72.413806    72.413807    36.128261          120    21469.577    23123.705   -32532.401     1357.663   -417.68874    858.71117    72.413806    62.712197    36.128261    4020.2936   -310492.29 
     790    705.40916    164046.21    72.410792    72.410792    36.126757          120    20556.068    24588.686   -32453.141    1187.6326    164.35218    221.78107    72.410792    62.709586    36.126757    4230.5377   -310496.28 
     800    705.04389    164027.48    72.408036    72.408037    36.125382          120    21980.985    24686.132   -33216.974    1088.7877   -136.89836    103.28694    72.408036    62.707199    36.125382    4483.3807   -310504.96 
     810    704.64318    164010.52    72.405541    72.405541    36.124137          120    23647.769    25137.792   -32407.434    1011.8172   -752.57562  -0.22755821    72.405541    62.705038    36.124137    5459.3759   -310512.79 
     820    704.88642    163995.39    72.403314    72.403315    36.123026          120    22358.312     24773.02   -33508.414    1526.3927    429.10185   -868.09297    72.403314     62.70311    36.123026    4540.9729   -310522.29 
     830    695.32199    163981.86    72.401323    72.401323    36.122033          120    21542.671    23980.697   -33398.427    1375.3656    365.87589    878.84479    72.401323    62.701385    36.122033    4041.6469   -310512.35 
     840    695.09336    163969.77    72.399542    72.399543    36.121144          120    20770.712    25562.673   -32434.601    970.40733   -919.49123    865.26169    72.399542    62.699843    36.121144    4632.9279   -310519.58 
     850    698.14119    163959.15    72.397979     72.39798    36.120364          120    21646.344    26876.912   -32620.534    497.13335    48.617268    920.69846    72.397979     62.69849    36.120364     5300.907   -310532.99 
     860     698.0894     163950.1    72.396648    72.396649      36.1197          120    22706.282    26713.541   -31267.864   -13.440785    382.62701     1471.784    72.396648    62.697337      36.1197    6050.6528   -310539.51 
     870     691.8604    163942.73    72.395563    72.395564    36.119159          120    23044.763    26817.648   -30877.577   -238.17022    804.16284    1755.2085    72.395563    62.696397    36.119159    6328.2783    -310534.2 
     880    688.49098    163937.03    72.394724    72.394724     36.11874          120    23197.388        25866   -30967.573    7.6764367    413.90139    1217.9382    72.394724    62.695671     36.11874    6031.9383   -310533.81 
     890    691.83145    163932.87    72.394112    72.394112    36.118435          120    21602.823    26554.186   -31813.072    353.74873    -297.5745    794.85759    72.394112    62.695141    36.118435     5447.979   -310545.41 
     900    689.29667    163930.06    72.393698    72.393699    36.118229          120    21060.854     26867.04   -32348.409    465.26768    150.24733    339.95722    72.393698    62.694782    36.118229    5193.1616   -310545.75 
     910    692.02021     163928.5    72.393468    72.393469    36.118114          120    21028.454    26610.072    -31686.81    1247.5116   -871.20007   -737.39958    72.393468    62.694583    36.118114    5317.2388   -310555.93 
     920     685.8364    163928.15    72.393416    72.393417    36.118088          120     20842.32    26025.219    -32506.64    594.81498   -96.306831   -828.67861    72.393416    62.694538    36.118088    4786.9665   -310548.53 
     930    688.73994    163928.88    72.393524    72.393525    36.118142          120    21606.017    25250.779   -31882.898    1337.7157   -169.31375    630.19148    72.393524    62.694632    36.118142    4991.2993   -310557.73 
     940    685.26232    163930.68    72.393789    72.393789    36.118274          120    22055.549    25237.278   -33319.096    1334.2423   -349.23083    212.53843    72.393789    62.694861    36.118274    4657.9101   -310553.65 
     950    684.41874    163933.45    72.394197    72.394197    36.118477          120    22416.639    24793.435   -33738.723     667.6881   -17.932262    243.13344    72.394197    62.695214    36.118477    4490.4505   -310554.88 
     960    682.84943    163937.14     72.39474     72.39474    36.118748          120    22364.468    25209.496   -32680.274      1189.18    412.76114    623.08189     72.39474    62.695684    36.118748    4964.5634      -310554 
     970    687.15561    163941.78    72.395423    72.395423    36.119089          120    21383.172    25735.042   -32365.858    1685.1856    1891.6357    1221.2072    72.395423    62.696276    36.119089     4917.452   -310563.32 
     980    689.19406    163947.35    72.396242    72.396243    36.119498          120    21667.014    26180.441   -31395.647    1886.9336     1550.688    1402.1484    72.396242    62.696986    36.119498    5483.9359   -310568.51 
     990    686.75483    163953.95    72.397214    72.397214    36.119983          120    21472.589     26685.18   -29938.503    1752.1949   -198.90162    1752.0468    72.397214    62.697827    36.119983    6073.0884   -310563.74 
    1000    682.17739    163961.67     72.39835    72.398351     36.12055          120    20919.789    27113.452   -30130.162    1259.0207   -32.915734    1101.3868     72.39835    62.698811     36.12055    5967.6931   -310554.67 
Loop time of 406.359 on 1 procs for 1000 steps with 14848 atoms

Performance: 0.213 ns/day, 112.878 hours/ns, 2.461 timesteps/s
100.0% CPU use with 1 MPI tasks x no OpenMP threads

MPI task timing breakdown:
Section |  min time  |  avg time  |  max time  |%varavg| %total
---------------------------------------------------------------
Pair    | 309.38     | 309.38     | 309.38     |   0.0 | 76.13
Bond    | 0.00073028 | 0.00073028 | 0.00073028 |   0.0 |  0.00
Kspace  | 14.606     | 14.606     | 14.606     |   0.0 |  3.59
Neigh   | 73.193     | 73.193     | 73.193     |   0.0 | 18.01
Comm    | 0.60145    | 0.60145    | 0.60145    |   0.0 |  0.15
Output  | 0.013784   | 0.013784   | 0.013784   |   0.0 |  0.00
Modify  | 8.3978     | 8.3978     | 8.3978     |   0.0 |  2.07
Other   |            | 0.1698     |            |       |  0.04

Nlocal:    14848 ave 14848 max 14848 min
Histogram: 1 0 0 0 0 0 0 0 0 0
Nghost:    46774 ave 46774 max 46774 min
Histogram: 1 0 0 0 0 0 0 0 0 0
Neighs:    1.00355e+07 ave 1.00355e+07 max 1.00355e+07 min
Histogram: 1 0 0 0 0 0 0 0 0 0

Total # of neighbors = 10035463
Ave neighs/atom = 675.88
Ave special neighs/atom = 0
Neighbor list builds = 218
Dangerous builds = 0
PPPM initialization ...
  using 12-bit tables for long-range coulomb (../kspace.cpp:321)
  G vector (1/distance) = 0.202532
  grid = 36 50 24
  stencil order = 5
  estimated absolute RMS force accuracy = 0.0010022
  estimated relative force accuracy = 6.95988e-05
  using double precision FFTs
  3d grid and FFT values/proc = 65395 43200
Setting up Verlet run ...
  Unit style    : metal
  Current step  : 0
  Time step     : 0.001
Per MPI rank memory allocation (min/avg/max) = 151.5 | 151.5 | 151.5 Mbytes
Step Temp Volume Cella Cellb Cellc CellGamma Pxx Pyy Pzz Pxy Pxz Pyz Lx Ly Lz Press PotEng 
       0    682.17739    163961.67     72.39835    72.398351     36.12055          120    20930.322    27124.155   -30125.333    1259.1551   -33.044213    1101.6066     72.39835    62.698811     36.12055    5976.3811   -310554.53 
  100000    702.86984    165970.31    72.692795    72.692795    36.267452          120    17084.793     20979.78   -36281.888     371.5641    1222.4356   -385.84786    72.692795    62.953808    36.267452    594.22817   -310723.31 
Loop time of 39044.5 on 1 procs for 100000 steps with 14848 atoms

Performance: 0.221 ns/day, 108.457 hours/ns, 2.561 timesteps/s
100.0% CPU use with 1 MPI tasks x no OpenMP threads

MPI task timing breakdown:
Section |  min time  |  avg time  |  max time  |%varavg| %total
---------------------------------------------------------------
Pair    | 29923      | 29923      | 29923      |   0.0 | 76.64
Bond    | 0.065449   | 0.065449   | 0.065449   |   0.0 |  0.00
Kspace  | 1466.6     | 1466.6     | 1466.6     |   0.0 |  3.76
Neigh   | 6742.9     | 6742.9     | 6742.9     |   0.0 | 17.27
Comm    | 58.178     | 58.178     | 58.178     |   0.0 |  0.15
Output  | 0.00012803 | 0.00012803 | 0.00012803 |   0.0 |  0.00
Modify  | 837.68     | 837.68     | 837.68     |   0.0 |  2.15
Other   |            | 16.46      |            |       |  0.04

Nlocal:    14848 ave 14848 max 14848 min
Histogram: 1 0 0 0 0 0 0 0 0 0
Nghost:    46474 ave 46474 max 46474 min
Histogram: 1 0 0 0 0 0 0 0 0 0
Neighs:    9.91396e+06 ave 9.91396e+06 max 9.91396e+06 min
Histogram: 1 0 0 0 0 0 0 0 0 0

Total # of neighbors = 9913964
Ave neighs/atom = 667.697
Ave special neighs/atom = 0
Neighbor list builds = 20175
Dangerous builds = 0
 
All done!
Total wall time: 10:57:32
