LAMMPS (16 Mar 2018)
Reading data file ...
  triclinic box = (0 0 0) to (9.208 7.97436 18.376) with tilt (-4.604 0 0)
  1 by 1 by 1 MPI processor grid
  reading atoms ...
  116 atoms
Finding 1-2 1-3 1-4 neighbors ...
  special bond factors lj:   0          0          0         
  special bond factors coul: 0          0          0         
  0 = max # of 1-2 neighbors
  0 = max # of 1-3 neighbors
  0 = max # of 1-4 neighbors
  1 = max # of special neighbors
Replicating atoms ...
  triclinic box = (0 0 0) to (73.664 63.7949 36.752) with tilt (-36.832 0 0)
  1 by 1 by 1 MPI processor grid
  14848 atoms
Finding 1-2 1-3 1-4 neighbors ...
  special bond factors lj:   0          0          0         
  special bond factors coul: 0          0          0         
  0 = max # of 1-2 neighbors
  0 = max # of 1-3 neighbors
  0 = max # of 1-4 neighbors
  1 = max # of special neighbors
  Time spent = 0.0034008 secs
PPPM initialization ...
WARNING: System is not charge neutral, net charge = -0.2048 (../kspace.cpp:302)
  using 12-bit tables for long-range coulomb (../kspace.cpp:321)
  G vector (1/distance) = 0.201681
  grid = 36 50 24
  stencil order = 5
  estimated absolute RMS force accuracy = 0.00105653
  estimated relative force accuracy = 7.33721e-05
  using double precision FFTs
  3d grid and FFT values/proc = 65395 43200
Neighbor list info ...
  update every 1 steps, delay 0 steps, check yes
  max neighbors/atom: 2000, page size: 100000
  master list distance cutoff = 15.3
  ghost atom cutoff = 15.3
  binsize = 7.65, bins = 15 9 5
  3 neighbor lists, perpetual/occasional/extra = 3 0 0
  (1) pair morse, perpetual
      attributes: half, newton on
      pair build: half/bin/newton/tri
      stencil: half/bin/3d/newton/tri
      bin: standard
  (2) pair buck, perpetual, copy from (1)
      attributes: half, newton on
      pair build: copy
      stencil: none
      bin: none
  (3) pair lj/cut/coul/long, perpetual, copy from (1)
      attributes: half, newton on
      pair build: copy
      stencil: none
      bin: none
Setting up Verlet run ...
  Unit style    : metal
  Current step  : 0
  Time step     : 0.001
Per MPI rank memory allocation (min/avg/max) = 145.7 | 145.7 | 145.7 Mbytes
Step Temp Volume Cella Cellb Cellc CellGamma Pxx Pyy Pzz Pxy Pxz Pyz Lx Ly Lz Press PotEng 
       0          200    172711.88       73.664    73.664001       36.752          120   -201939.85   -201969.55   -273506.94    17.047678   -5.0886883    6.8009069       73.664    63.794896       36.752   -225805.44   -308813.26 
      10    314.56896    172613.62    73.650027    73.650028    36.745029          120   -205560.57   -205660.03   -252183.17    98.723723   -11.596207   -147.90814    73.650027    63.782795    36.745029   -221134.59   -309072.45 
      20    570.47155    172324.68     73.60891    73.608911    36.724515          120   -205199.56   -204847.34   -192375.94    18.112604   -212.76806    -319.9769     73.60891    63.747187    36.724515   -200807.61   -309619.83 
      30    549.68306    171871.19    73.544284    73.544285    36.692272          120   -181591.34   -181128.16   -111866.11   -209.27252   -739.11039   -393.00876    73.544284    63.691219    36.692272    -158195.2   -309655.98 
      40    325.78345    171311.02    73.464297    73.464297    36.652365          120   -142010.18    -142013.1   -33880.334   -488.49107   -1105.4288   -443.76275    73.464297    63.621948    36.652365   -105967.87   -309287.18 
      50    409.49137     170721.4    73.379917    73.379917    36.610267          120    -101577.8   -101914.43   -576.58042   -586.44929     -1174.55   -588.11758    73.379917    63.548873    36.610267   -68022.938   -309484.63 
      60    720.21396    170164.91      73.3001      73.3001    36.570445          120   -72706.249   -72587.948   -36375.365   -569.01228   -2094.7412   -454.55055      73.3001    63.479749    36.570445   -60556.521   -310121.57 
      70    902.54032    169665.19    73.228277    73.228277    36.534612          120   -51330.648   -50999.504    -99722.13   -1421.8972   -2407.4285   -371.76369    73.228277    63.417549    36.534612   -67350.761   -310545.27 
      80    753.85067    169217.97    73.163879    73.163879    36.502483          120   -37584.655   -38105.453   -144668.52   -1717.9492   -2954.5741    94.507509    73.163879    63.361778    36.502483   -73452.874   -310336.27 
      90    484.01883    168809.66    73.104985    73.104986      36.4731          120   -31156.546   -31661.773   -158830.23   -1819.0592   -3477.1411   -60.557737    73.104985    63.310775      36.4731   -73882.849   -309875.54 
     100    514.87327    168428.78    73.049962    73.049963    36.445648          120   -16869.526   -16776.589   -138744.37   -1588.6311   -3254.4178   -595.92789    73.049962    63.263124    36.445648   -57463.496   -309979.36 
     110    688.83111    168075.29    72.998821    72.998822    36.420133          120     1570.917     1568.559   -96137.329   -1654.4901   -2587.6962   -606.09952    72.998821    63.218834    36.420133   -30999.284   -310366.55 
     120    676.42882    167756.74    72.952675    72.952675     36.39711          120    11941.497    12117.227   -44686.138   -1627.8374   -2175.2102   -1061.0035    72.952675     63.17887     36.39711   -6875.8048   -310402.58 
     130    566.79804     167479.4     72.91245    72.912451    36.377041          120    10000.325    11043.284   -4037.8309   -1700.8543   -2237.7654   -1042.0075     72.91245    63.144035    36.377041    5668.5928   -310241.97 
     140    527.60848    167242.53     72.87806    72.878061    36.359884          120    4959.7817    5109.8611    8333.0669   -1354.5157   -2084.0967   -877.27736     72.87806    63.114252    36.359884    6134.2365   -310206.73 
     150    589.27372    167037.99    72.848338    72.848339    36.345055          120   -2127.5802   -902.53311    -17002.35   -1998.6903   -1612.4101   -377.94666    72.848338    63.088512    36.345055   -6677.4876   -310368.06 
     160    647.81336    166850.45    72.821065    72.821065    36.331448          120   -12675.286     -10575.2   -55486.208   -1762.7053   -1751.5734   -204.80769    72.821065    63.064893    36.331448   -26245.565   -310534.48 
     170    616.32947    166662.62    72.793728    72.793728    36.317809          120   -17518.639   -15168.836   -85774.634   -695.01906   -2434.1055   -536.37058    72.793728    63.041218    36.317809    -39487.37   -310532.95 
     180    533.22549    166463.95    72.764793    72.764793    36.303373          120   -13511.241    -11007.61   -101697.47   -393.68247   -2654.8947   -708.60486    72.764793     63.01616    36.303373   -42072.106   -310426.48 
     190    517.41071    166253.24    72.734077    72.734078    36.288049          120   -7926.8195   -5801.4562   -97658.975    356.46947   -2391.2274   -428.43886    72.734077    62.989559    36.288049   -37129.083   -310442.59 
     200    559.82809     166035.7    72.702339     72.70234    36.272214          120   -3326.2765    -1919.825   -76399.883   -175.28131   -2717.2794    -486.2265    72.702339    62.962073    36.272214   -27215.328   -310571.74 
     210    562.06545    165819.97    72.670838    72.670839    36.256498          120    625.80666    2576.5553   -50840.799    -873.4138   -2974.8368   -227.75114    72.670838    62.934793    36.256498   -15879.479      -310627 
     220    527.42513    165614.91     72.64087     72.64087    36.241546          120    4234.2289    5582.0306   -31149.502   -178.37818   -2463.1974   -824.44189     72.64087    62.908839    36.241546   -7111.0807   -310607.01 
     230    504.51541    165426.24    72.613275    72.613276    36.227779          120    5475.2086    5915.2709   -24949.649    14.159061   -1856.6299   -1519.8157    72.613275    62.884941    36.227779   -4519.7231   -310605.42 
     240    512.96049    165254.38     72.58812    72.588121    36.215229          120    3746.3827     3695.979   -31886.698    149.84651   -2310.6226    -1940.859     72.58812    62.863157    36.215229    -8148.112   -310663.48 
     250     529.5022    165094.95    72.564771    72.564771    36.203579          120    1084.0679    668.55162   -47813.463    378.77534   -2151.8025   -2221.5684    72.564771    62.842935    36.203579   -15353.615   -310740.14 
     260    515.99026    164941.53    72.542285    72.542286    36.192361          120    973.61709   -783.26405   -63749.416    233.55116   -2142.3211   -1932.6894    72.542285    62.823462    36.192361   -21186.354   -310760.78 
     270    485.31175     164789.2    72.519947    72.519947    36.181216          120     1782.663    170.70837   -71964.351   -670.99096   -2261.5967   -1110.6924    72.519947    62.804117    36.181216   -23336.993   -310746.07 
     280    472.17186    164636.31    72.497512    72.497512    36.170023          120    2781.1398    2771.3118   -69124.699   -501.37762    -1852.512   -320.00592    72.497512    62.784688    36.170023   -21190.749   -310761.21 
     290    477.77022    164484.56    72.475232    72.475232    36.158907          120    5722.1623    6915.9085   -57684.557   -489.86167   -2125.6302    260.56037    72.475232    62.765392    36.158907   -15015.495    -310812.6 
     300    476.33746     164338.3    72.453743    72.453744    36.148186          120    9542.7071    11102.884   -42334.854   -28.745259   -2146.5857    558.97485    72.453743    62.746783    36.148186   -7229.7545   -310850.53 
     310    461.53656    164202.54    72.433786    72.433786    36.138229          120    11936.253    13593.943   -27986.994    888.53817   -2143.8253    289.54963    72.433786    62.729499    36.138229   -818.93276   -310861.09 
     320    448.29453    164080.56    72.415846    72.415847    36.129278          120    11486.754    12982.294   -21306.261    575.49007   -2036.6859   -433.23693    72.415846    62.713963    36.129278    1054.2624   -310872.38 
     330    445.95762    163972.17    72.399896    72.399896    36.121321          120    9563.7114    11655.365   -23544.653    268.24221    -2151.165   -1032.5961    72.399896    62.700149    36.121321   -775.19204    -310903.6 
     340    445.32829    163874.45    72.385511    72.385512    36.114144          120    8945.6828    11123.262   -33958.746    374.61644   -1554.3705   -1014.5342    72.385511    62.687692    36.114144   -4629.9338   -310938.02 
     350    434.90652    163783.31    72.372089     72.37209    36.107448          120    9131.9285    10675.251   -46412.799   -4.9725773   -1245.8121   -720.10816    72.372089    62.676068    36.107448   -8868.5398   -310953.29 
     360    418.40487    163694.96    72.359073    72.359074    36.100954          120      9285.48     11683.92   -52506.311   -192.84086   -980.24708   -1454.8335    72.359073    62.664796    36.100954   -10512.304   -310955.48 
     370    404.39489    163607.76    72.346222    72.346223    36.094542          120    10514.767    14151.135   -52115.266   -209.77343   -1621.8586   -1546.1374    72.346222    62.653667    36.094542   -9149.7881   -310960.64 
     380    405.98967    163522.41    72.333641    72.333641    36.088265          120    12969.231    16298.711   -46119.252   -249.59461   -1390.6167   -1378.8645    72.333641    62.642771    36.088265   -5617.1036   -310994.83 
     390      404.242    163441.21    72.321666    72.321666    36.082291          120    15577.049    17739.905   -35556.135   -540.92778   -1838.4394   -1577.3476    72.321666      62.6324    36.082291   -746.39383    -311022.3 
     400    389.83384    163367.11    72.310735    72.310735    36.076837          120    17127.331    18976.172   -25856.808    209.66214   -2359.6019   -1020.9565    72.310735    62.622934    36.076837     3415.565    -311024.8 
     410    383.39006    163302.26    72.301165    72.301165    36.072062          120    17571.591    18959.165   -22266.968    142.40154   -2092.6834   -1147.8683    72.301165    62.614646    36.072062    4754.5961   -311041.15 
     420    383.34734    163246.71    72.292966    72.292967    36.067972          120    17081.541    18457.474    -24734.04   -152.62463   -2090.5021   -810.21905    72.292966    62.607546    36.067972    3601.6586   -311069.71 
     430    375.67719    163198.74    72.285883    72.285884    36.064438          120    15355.462    17854.037   -30266.518    422.78776   -1662.2242   -366.82811    72.285883    62.601412    36.064438    980.99364    -311083.3 
     440    368.59226    163155.66    72.279522    72.279523    36.061265          120    14958.517     16123.41   -37059.089    607.28254   -1619.1287    67.403729    72.279522    62.595903    36.061265   -1992.3875    -311097.1 
     450    359.76745    163114.89    72.273502    72.273502    36.058261          120    15870.678      15408.8   -40752.387    483.46239   -1624.3208   -323.60959    72.273502    62.590689    36.058261   -3157.6364   -311106.48 
     460    353.09661    163075.39    72.267667    72.267668     36.05535          120    17929.628    17117.706   -40094.415    700.58649   -1297.7815   -825.45092    72.267667    62.585636     36.05535   -1682.3602    -311118.8 
     470      346.091    163037.97    72.262139     72.26214    36.052592          120    19402.162    18469.896   -35936.202    754.82959    -1166.548   -180.86133    72.262139    62.580849    36.052592    645.28545    -311129.7 
     480    345.21173    163004.08    72.257132    72.257133    36.050094          120    19965.649    19310.743   -30746.292    654.43766   -998.12183   -580.77127    72.257132    62.576513    36.050094    2843.3666   -311151.83 
     490    339.56697    162974.98    72.252832    72.252833    36.047949          120    20175.147    19981.224   -26616.599    844.41866   -1281.1625    -315.6376    72.252832    62.572789    36.047949    4513.2575   -311164.53 
     500    332.88408    162951.53    72.249366    72.249366    36.046219          120    20196.585    21118.209    -24499.96    754.67753   -1747.7388     467.8616    72.249366    62.569787    36.046219    5604.9447   -311174.65 
     510    328.81684    162933.94    72.246766    72.246767    36.044922          120    19638.976    20552.111    -25671.12    758.34206   -2063.9307    392.80829    72.246766    62.567536    36.044922     4839.989   -311189.06 
     520     321.2326    162921.29    72.244896    72.244897    36.043989          120    19502.931    19933.177       -28392    567.07844   -2107.3238    386.66268    72.244896    62.565916    36.043989    3681.3692   -311196.01 
     530     320.9542    162912.28    72.243565    72.243565    36.043325          120    18939.775    19788.072    -32660.59    658.65707   -1812.2209    1061.8566    72.243565    62.564763    36.043325    2022.4191   -311216.82 
     540    314.18098    162905.44    72.242553    72.242554     36.04282          120    18175.178    19455.576   -35795.956     525.7001   -1993.6328    843.70684    72.242553    62.563887     36.04282     611.5992   -311224.26 
     550    309.09527    162899.66    72.241699      72.2417    36.042394          120    17884.134    20235.068   -35718.561    384.83327   -1682.0023    865.02791    72.241699    62.563147    36.042394    800.21345   -311234.18 
     560    305.34383    162894.97    72.241006    72.241006    36.042048          120     18901.31    21087.931   -33481.774   -254.13412   -1513.3897    922.59959    72.241006    62.562547    36.042048    2169.1556   -311246.53 
     570    297.97931    162892.27    72.240607    72.240608     36.04185          120    20466.611    21501.624   -29686.388   -482.80902   -1643.5478    700.89131    72.240607    62.562202     36.04185    4093.9489    -311251.4 
     580    296.51673    162892.83     72.24069    72.240691    36.041891          120    21171.122    22035.899   -26036.436    -89.66612   -2101.9434    530.22406     72.24069    62.562274    36.041891    5723.5283   -311266.82 
     590    294.09674    162897.58    72.241392    72.241392    36.042241          120    20955.932    21678.188   -24297.707   -6.1910944   -2396.6402    241.44271    72.241392    62.562881    36.042241    6112.1375   -311279.95 
     600    286.18277    162906.51    72.242713    72.242713      36.0429          120    21417.314    20716.314   -26210.612    144.79943   -2087.6607   -40.436573    72.242713    62.564025      36.0429    5307.6722   -311282.16 
     610    283.39429     162918.8    72.244528    72.244529    36.043806          120    20956.295    20342.114   -29854.443   -5.7726013   -2763.5045   -576.19238    72.244528    62.565597    36.043806    3814.6554   -311293.53 
     620    282.15612    162933.12    72.246646    72.246646    36.044862          120    20097.909    19280.136   -32587.733    259.15178   -2745.7859    -637.3345    72.246646    62.567431    36.044862    2263.4372    -311308.2 
     630    275.66985    162948.28    72.248886    72.248886     36.04598          120    20241.485    18484.071   -34466.048   -21.846076   -2837.6693   -761.20672    72.248886    62.569371     36.04598    1419.8356   -311311.74 
     640    271.53466     162963.6     72.25115    72.251151     36.04711          120    20665.122    18614.742    -34555.82   -86.840249   -2876.3075   -686.57674     72.25115    62.571332     36.04711    1574.6812    -311318.8 
     650    269.63204    162979.16     72.25345     72.25345    36.048257          120    21137.294    18849.085    -33486.02   -137.55647   -2820.5892   -691.56633     72.25345    62.573324    36.048257    2166.7865   -311330.24 
     660    267.75038    162995.42    72.255852    72.255852    36.049455          120    21582.828    19264.746   -31083.408   -81.416674   -2712.9291   -1319.5601    72.255852    62.575404    36.049455    3254.7219   -311341.52 
     670     262.9793    163013.12    72.258468    72.258469     36.05076          120    21575.202    19516.771   -28406.539   -300.17019    -2412.462   -1261.0933    72.258468     62.57767     36.05076    4228.4781   -311347.19 
     680    259.48917    163032.86    72.261385    72.261386    36.052216          120    20620.501     19794.86   -28174.472   -291.63922   -2942.0831   -969.08419    72.261385    62.580196    36.052216    4080.2963   -311354.41 
     690    254.94436    163054.46    72.264575    72.264576    36.053807          120    19675.626    19529.533    -29449.66   -476.27238   -2906.1338   -1149.7164    72.264575    62.582959    36.053807     3251.833   -311359.02 
     700    252.80255    163077.18    72.267932    72.267933    36.055482          120    19013.483    18566.653   -31429.033   -484.94304   -2874.7322    -749.3632    72.267932    62.585866    36.055482    2050.3674   -311367.95 
     710    251.74186    163100.12    72.271321    72.271321    36.057173          120    18543.059    18584.988   -33138.134   -542.24457    -2793.629   -1037.3747    72.271321      62.5888    36.057173    1329.9711   -311378.51 
     720    248.14178    163122.74    72.274661    72.274662     36.05884          120    18360.469    19165.726   -34209.489   -285.04814   -3093.1972   -924.04457    72.274661    62.591693     36.05884    1105.5686   -311383.65 
     730    244.87134    163144.94    72.277939     72.27794    36.060475          120    18760.294    19348.416   -33637.193    376.65823   -2515.8267   -1505.2717    72.277939    62.594532    36.060475    1490.5056   -311388.81 
     740    244.02478    163166.95    72.281189     72.28119    36.062096          120    19009.545    19193.844   -33360.073    556.10535   -2228.7805   -1633.2432    72.281189    62.597347    36.062096    1614.4386   -311399.35 
     750    239.12461    163188.93    72.284436    72.284436    36.063716          120    19390.444    18878.184   -32495.697    338.64564   -2773.3463    -1262.841    72.284436    62.600158    36.063716    1924.3104   -311400.82 
     760    235.28769    163211.14    72.287714    72.287715    36.065352          120    19256.715     19091.82    -30923.05    792.28362    -2382.638   -1166.8625    72.287714    62.602997    36.065352    2475.1615   -311404.36 
     770    232.37857    163233.93    72.291079    72.291079     36.06703          120    18819.677    19621.813   -30450.483    746.95518   -2476.5576   -939.55876    72.291079    62.605911     36.06703    2663.6687   -311409.54 
     780    232.21407    163257.41    72.294545    72.294546     36.06876          120    18534.452     19186.47   -30839.177    457.11163   -2155.2063   -1476.4109    72.294545    62.608913     36.06876    2293.9151   -311419.46 
     790    230.72997     163281.3    72.298071    72.298071    36.070519          120    18367.132    18684.884   -32481.791    498.67963   -1563.1679   -2002.8378    72.298071    62.611967    36.070519    1523.4085   -311427.02 
     800    226.83439    163304.98    72.301565    72.301566    36.072262          120    17660.583     18413.16   -35403.898    950.30163   -1897.2052   -1981.0164    72.301565    62.614993    36.072262    223.28158    -311429.2 
     810     225.1293    163327.52    72.304892    72.304893    36.073922          120    16959.798    17143.798   -36608.012     1001.703   -1797.3779   -1677.8994    72.304892    62.617874    36.073922   -834.80539   -311435.24 
     820    224.37571    163348.29    72.307958    72.307958    36.075452          120    17741.788    16845.418   -36263.353    1119.0451   -1599.6094   -1532.7135    72.307958    62.620529    36.075452   -558.71565   -311443.46 
     830     223.5183    163367.52    72.310795    72.310796    36.076867          120    18275.461    17149.197   -35384.019    1391.4899   -1545.1717   -1628.3558    72.310795    62.622986    36.076867    13.546496   -311450.63 
     840    218.96428    163385.75    72.313483    72.313484    36.078208          120    18729.788    18025.821   -34270.546     715.1752   -1463.5976   -1055.5638    72.313483    62.625314    36.078208    828.35427   -311450.21 
     850    216.84394    163403.57    72.316114    72.316114    36.079521          120    18295.122    18341.219   -33420.353    358.25273   -1672.4875   -978.05777    72.316114    62.627592    36.079521    1071.9958   -311454.22 
     860    216.52266    163421.25     72.31872    72.318721    36.080821          120    17836.462    18012.859   -33223.983    255.36277   -1845.7646    -1330.338     72.31872     62.62985    36.080821    875.11265      -311461 
     870    212.89202    163438.64    72.321286    72.321287    36.082101          120    17530.272    17743.688     -33419.8    226.46274   -2098.8567   -1286.9946    72.321286    62.632072    36.082101    618.05343   -311461.83 
     880    211.97272    163455.55     72.32378    72.323781    36.083345          120     17550.72    17031.044    -35036.49    525.71876   -1788.0969     -1153.94     72.32378    62.634231    36.083345   -151.57564   -311467.56 
     890    209.02984    163471.47    72.326128    72.326129    36.084517          120    17477.245    16020.928   -36101.395    570.64569   -1754.1033   -961.20725    72.326128    62.636265    36.084517   -867.74072    -311469.4 
     900    207.75826    163485.94    72.328262    72.328262    36.085582          120    17033.123    15626.664   -36162.299    280.88392   -2152.9807   -1533.0069    72.328262    62.638113    36.085582   -1167.5042    -311473.7 
     910    207.09439    163498.78    72.330156    72.330157    36.086527          120    17010.851      15562.8   -36124.876    296.43589   -2275.5137   -1833.4865    72.330156    62.639753    36.086527   -1183.7416    -311478.7 
     920    205.60184    163510.09    72.331823    72.331824    36.087358          120    16969.294     16080.65   -35587.872    422.36524   -2120.6694    -1619.608    72.331823    62.641197    36.087358   -845.97605   -311482.05 
     930    204.12688    163520.19    72.333313    72.333314    36.088102          120    16820.438    16710.757   -34494.184    848.94554   -1820.4272    -1063.449    72.333313    62.642487    36.088102   -320.99636   -311485.02 
     940    204.03728    163529.55    72.334692    72.334693     36.08879          120    16633.393    17307.248   -33675.235     1196.448   -1927.6131   -1189.2041    72.334692    62.643682     36.08879    88.468436   -311490.12 
     950    202.64074    163538.46    72.336006    72.336007    36.089445          120    16380.626    17544.975   -34190.326    591.88658   -1894.4376   -1967.4283    72.336006    62.644819    36.089445   -88.241658   -311493.08 
     960    199.80782    163546.87    72.337247    72.337247    36.090064          120    16599.709    17305.529   -34557.245    234.65257   -2104.9902   -1779.7323    72.337247    62.645894    36.090064   -217.33582   -311493.19 
     970    199.00568    163554.64    72.338393    72.338393    36.090636          120    16243.918    16693.494   -35773.443    370.22932   -2290.2235   -1784.2175    72.338393    62.646886    36.090636   -945.34369   -311496.53 
     980    197.80641    163561.36    72.339383    72.339383     36.09113          120    16452.335    16652.009   -36268.297    381.94902   -2368.0229    -1369.472    72.339383    62.647744     36.09113   -1054.6509   -311498.52 
     990    196.44404    163566.92    72.340203    72.340204    36.091539          120    16480.448    16617.696   -36461.517    119.86459   -1899.8535   -1240.8854    72.340203    62.648454    36.091539   -1121.1243   -311500.15 
    1000    196.99181     163571.4    72.340863    72.340863    36.091868          120    16201.191    16788.055   -35488.756    241.51444   -1768.2738   -1236.6831    72.340863    62.649026    36.091868   -833.17004   -311505.44 
Loop time of 385.838 on 1 procs for 1000 steps with 14848 atoms

Performance: 0.224 ns/day, 107.177 hours/ns, 2.592 timesteps/s
100.0% CPU use with 1 MPI tasks x no OpenMP threads

MPI task timing breakdown:
Section |  min time  |  avg time  |  max time  |%varavg| %total
---------------------------------------------------------------
Pair    | 310.32     | 310.32     | 310.32     |   0.0 | 80.43
Bond    | 0.00063181 | 0.00063181 | 0.00063181 |   0.0 |  0.00
Kspace  | 14.411     | 14.411     | 14.411     |   0.0 |  3.73
Neigh   | 52.154     | 52.154     | 52.154     |   0.0 | 13.52
Comm    | 0.50041    | 0.50041    | 0.50041    |   0.0 |  0.13
Output  | 0.013607   | 0.013607   | 0.013607   |   0.0 |  0.00
Modify  | 8.292      | 8.292      | 8.292      |   0.0 |  2.15
Other   |            | 0.1455     |            |       |  0.04

Nlocal:    14848 ave 14848 max 14848 min
Histogram: 1 0 0 0 0 0 0 0 0 0
Nghost:    46820 ave 46820 max 46820 min
Histogram: 1 0 0 0 0 0 0 0 0 0
Neighs:    1.00598e+07 ave 1.00598e+07 max 1.00598e+07 min
Histogram: 1 0 0 0 0 0 0 0 0 0

Total # of neighbors = 10059821
Ave neighs/atom = 677.52
Ave special neighs/atom = 0
Neighbor list builds = 156
Dangerous builds = 0
PPPM initialization ...
  using 12-bit tables for long-range coulomb (../kspace.cpp:321)
  G vector (1/distance) = 0.20257
  grid = 36 50 24
  stencil order = 5
  estimated absolute RMS force accuracy = 0.000999782
  estimated relative force accuracy = 6.9431e-05
  using double precision FFTs
  3d grid and FFT values/proc = 65395 43200
Setting up Verlet run ...
  Unit style    : metal
  Current step  : 0
  Time step     : 0.001
Per MPI rank memory allocation (min/avg/max) = 151.5 | 151.5 | 151.5 Mbytes
Step Temp Volume Cella Cellb Cellc CellGamma Pxx Pyy Pzz Pxy Pxz Pyz Lx Ly Lz Press PotEng 
       0    196.99181     163571.4    72.340863    72.340863    36.091868          120     16212.81    16800.306   -35482.465    241.78719   -1768.1296   -1236.7103    72.340863    62.649026    36.091868   -823.11644   -311505.27 
  100000    199.17776    163965.37    72.398895    72.398896    36.120821          120     16668.39    17728.133   -34996.861     1032.909   -2018.7757    -3701.901    72.398895    62.699283    36.120821    -200.1128    -311574.5 
Loop time of 36770.8 on 1 procs for 100000 steps with 14848 atoms

Performance: 0.235 ns/day, 102.141 hours/ns, 2.720 timesteps/s
99.1% CPU use with 1 MPI tasks x no OpenMP threads

MPI task timing breakdown:
Section |  min time  |  avg time  |  max time  |%varavg| %total
---------------------------------------------------------------
Pair    | 30582      | 30582      | 30582      |   0.0 | 83.17
Bond    | 0.057329   | 0.057329   | 0.057329   |   0.0 |  0.00
Kspace  | 1457.4     | 1457.4     | 1457.4     |   0.0 |  3.96
Neigh   | 3514.9     | 3514.9     | 3514.9     |   0.0 |  9.56
Comm    | 47.928     | 47.928     | 47.928     |   0.0 |  0.13
Output  | 0.00012803 | 0.00012803 | 0.00012803 |   0.0 |  0.00
Modify  | 1152       | 1152       | 1152       |   0.0 |  3.13
Other   |            | 16.32      |            |       |  0.04

Nlocal:    14848 ave 14848 max 14848 min
Histogram: 1 0 0 0 0 0 0 0 0 0
Nghost:    46823 ave 46823 max 46823 min
Histogram: 1 0 0 0 0 0 0 0 0 0
Neighs:    1.00356e+07 ave 1.00356e+07 max 1.00356e+07 min
Histogram: 1 0 0 0 0 0 0 0 0 0

Total # of neighbors = 10035575
Ave neighs/atom = 675.887
Ave special neighs/atom = 0
Neighbor list builds = 10486
Dangerous builds = 0
 
All done!
Total wall time: 10:19:18
