LAMMPS (16 Mar 2018)
Reading data file ...
  triclinic box = (0 0 0) to (9.208 7.97436 18.376) with tilt (-4.604 0 0)
  1 by 1 by 1 MPI processor grid
  reading atoms ...
  116 atoms
Finding 1-2 1-3 1-4 neighbors ...
  special bond factors lj:   0          0          0         
  special bond factors coul: 0          0          0         
  0 = max # of 1-2 neighbors
  0 = max # of 1-3 neighbors
  0 = max # of 1-4 neighbors
  1 = max # of special neighbors
Replicating atoms ...
  triclinic box = (0 0 0) to (73.664 63.7949 36.752) with tilt (-36.832 0 0)
  1 by 1 by 1 MPI processor grid
  14848 atoms
Finding 1-2 1-3 1-4 neighbors ...
  special bond factors lj:   0          0          0         
  special bond factors coul: 0          0          0         
  0 = max # of 1-2 neighbors
  0 = max # of 1-3 neighbors
  0 = max # of 1-4 neighbors
  1 = max # of special neighbors
  Time spent = 0.00365305 secs
PPPM initialization ...
WARNING: System is not charge neutral, net charge = -0.2048 (../kspace.cpp:302)
  using 12-bit tables for long-range coulomb (../kspace.cpp:321)
  G vector (1/distance) = 0.201681
  grid = 36 50 24
  stencil order = 5
  estimated absolute RMS force accuracy = 0.00105653
  estimated relative force accuracy = 7.33721e-05
  using double precision FFTs
  3d grid and FFT values/proc = 65395 43200
Neighbor list info ...
  update every 1 steps, delay 0 steps, check yes
  max neighbors/atom: 2000, page size: 100000
  master list distance cutoff = 15.3
  ghost atom cutoff = 15.3
  binsize = 7.65, bins = 15 9 5
  3 neighbor lists, perpetual/occasional/extra = 3 0 0
  (1) pair morse, perpetual
      attributes: half, newton on
      pair build: half/bin/newton/tri
      stencil: half/bin/3d/newton/tri
      bin: standard
  (2) pair buck, perpetual, copy from (1)
      attributes: half, newton on
      pair build: copy
      stencil: none
      bin: none
  (3) pair lj/cut/coul/long, perpetual, copy from (1)
      attributes: half, newton on
      pair build: copy
      stencil: none
      bin: none
Setting up Verlet run ...
  Unit style    : metal
  Current step  : 0
  Time step     : 0.001
Per MPI rank memory allocation (min/avg/max) = 145.7 | 145.7 | 145.7 Mbytes
Step Temp Volume Cella Cellb Cellc CellGamma Pxx Pyy Pzz Pxy Pxz Pyz Lx Ly Lz Press PotEng 
       0         1300    172711.88       73.664    73.664001       36.752          120   -188759.35   -188994.73   -260495.81    103.66019   -33.052523    44.214916       73.664    63.794896       36.752   -212749.96   -308813.26 
      10    826.00511    172697.89    73.662011    73.662011    36.751007          120   -176956.65   -177043.33   -221847.46    144.64332   -24.852286   -374.70999    73.662011    63.793173    36.751007   -191949.15   -307909.46 
      20    1144.4312    172658.16    73.656362    73.656363    36.748189          120    -158644.9   -159275.87   -156860.18    220.78271    -22.71931   -699.84559    73.656362    63.788281    36.748189   -158260.32   -308520.91 
      30    1240.3989    172597.51    73.647736    73.647737    36.743886          120   -111558.13   -112035.92   -78094.494   -205.97034   -856.45565   -625.62532    73.647736    63.780811    36.743886   -100562.85   -308696.33 
      40    1020.7739    172523.47    73.637203    73.637204    36.738631          120   -66771.051   -67799.578   -7385.4854   -1711.7097   -874.44714    -482.2345    73.637203    63.771689    36.738631   -47318.705   -308258.55 
      50     1157.223    172442.79    73.625724    73.625724    36.732903          120   -48881.632   -49958.715   -5221.8349   -363.29882   -163.08642    -801.4183    73.625724    63.761748    36.732903   -34687.394   -308501.95 
      60    1351.6192    172357.42    73.613572    73.613572    36.726841          120   -47190.523   -46507.922   -54548.422   -1504.5362    -1444.354   -910.02493    73.613572    63.751224    36.726841   -49415.622   -308857.78 
      70     1451.765    172265.82    73.600528    73.600529    36.720333          120   -44843.173   -46662.022   -114533.22   -1972.8839   -2112.0733   -561.02254    73.600528    63.739928    36.720333   -68679.471   -309042.49 
      80    1337.1356    172165.68    73.586264    73.586264    36.713216          120   -46680.302   -49418.914   -153255.04   -1934.2545   -1774.2036   -595.96749    73.586264    63.727575    36.713216   -83118.086   -308821.41 
      90    1149.9886    172055.41    73.570551    73.570551    36.705377          120   -45653.479   -45459.334    -160324.1   -1246.2001   -2613.6055   -2181.0725    73.570551    63.713967    36.705377   -83812.304   -308460.92 
     100    1199.8011    171935.35    73.553433    73.553434    36.696837          120   -29918.823     -28590.8    -139462.2   -1341.8564    -2238.157    -2147.026    73.553433    63.699142    36.696837   -65990.607   -308556.08 
     110    1329.8885    171808.07    73.535279     73.53528    36.687779          120   -12534.432   -12247.489   -105085.71   -2043.1357    -751.9197   -2520.6533    73.535279    63.683421    36.687779   -43289.209   -308800.81 
     120    1352.7463    171676.95    73.516568    73.516569    36.678444          120   -3267.5404   -3290.4672    -64467.06   -1559.3892    23.118969   -1550.1079    73.516568    63.667216    36.678444   -23675.022   -308839.56 
     130    1301.3857    171544.97    73.497725    73.497725    36.669043          120   -2411.2412   -1641.4921   -32479.044   -233.85492   -805.11871   -1562.0156    73.497725    63.650897    36.669043   -12177.259    -308737.3 
     140    1270.3187    171414.03    73.479019    73.479019     36.65971          120   -6244.0605   -6359.3731   -20773.032   -638.93593   -1297.5728   -2927.0939    73.479019    63.634698     36.65971   -11125.489    -308673.3 
     150    1292.8212    171284.58    73.460517    73.460517    36.650479          120    -12937.79   -12684.778   -36547.446   -1208.2322   -1380.9991   -2085.6903    73.460517    63.618674    36.650479   -20723.338   -308712.66 
     160    1349.2375    171155.76    73.442096    73.442097    36.641289          120    -20265.31   -17914.846   -64247.676   -1640.5893    -1508.019   -3234.9095    73.442096    63.602722    36.641289    -34142.61   -308819.24 
     170    1368.1106    171026.21    73.423562    73.423563    36.632042          120   -22361.675   -22675.548   -91809.911    -1528.841   -2648.8269   -3285.6546    73.423562    63.586671    36.632042   -45615.711   -308856.07 
     180    1320.0611     170894.9    73.404767    73.404767    36.622665          120     -20015.1   -20510.608   -107838.91   -97.968709   -2401.7175   -3391.1763    73.404767    63.570394    36.622665   -49454.871   -308767.82 
     190    1298.8672    170761.73    73.385695    73.385696     36.61315          120   -18292.078   -16669.142   -109519.55    -418.3247   -4819.9545   -3140.7626    73.385695    63.553877     36.61315   -48160.255   -308732.04 
     200    1320.9163    170627.34    73.366438    73.366439    36.603542          120   -13943.552   -14547.387   -96998.193   -1450.7879    -4938.991   -3177.7958    73.366438      63.5372    36.603542    -41829.71   -308778.51 
     210    1345.8089    170492.92    73.347166    73.347167    36.593927          120   -10623.882     -12116.3    -79132.35   -520.82098   -3794.6332   -3500.7196    73.347166     63.52051    36.593927   -33957.511   -308831.14 
     220     1346.936    170359.82    73.328075    73.328075    36.584402          120   -7409.2084    -8698.116   -64486.758   -2079.7512   -2452.5477   -4109.7939    73.328075    63.503976    36.584402   -26864.694    -308838.9 
     230    1335.5926    170229.18    73.309327    73.309328    36.575049          120   -8240.0348   -8534.9696   -56232.716   -2229.8946   -1957.6823   -6491.9938    73.309327     63.48774    36.575049   -24335.907   -308823.95 
     240    1337.1538    170101.57    73.291004    73.291005    36.565907          120   -8731.3112   -8518.0962   -53144.961   -899.60371   -925.13942   -5972.8123    73.291004    63.471872    36.565907    -23464.79   -308835.52 
     250    1340.9558    169977.16    73.273132    73.273132     36.55699          120   -10321.782   -11084.921   -58792.993   -401.25121   -1638.9183   -4928.8627    73.273132    63.456394     36.55699   -26733.232   -308852.35 
     260    1364.9919    169855.63    73.255664    73.255665    36.548276          120   -13874.239   -12796.408    -70533.93   -788.27147   -1767.1693   -4741.7796    73.255664    63.441267    36.548276   -32401.526   -308910.41 
     270    1354.5175    169736.34    73.238512    73.238512    36.539718          120   -16664.622   -13249.907   -79231.496   -708.55771   -2513.5699   -4698.1985    73.238512    63.426412    36.539718   -36382.008   -308904.19 
     280    1346.6107    169618.82    73.221604    73.221605    36.531283          120   -16802.703   -13829.024    -84696.31   -114.83818   -1125.0271   -3613.7088    73.221604     63.41177    36.531283   -38442.679   -308904.48 
     290    1350.4992    169502.86    73.204914    73.204915    36.522956          120   -15460.341   -10642.337   -82971.549   -237.00685   -1281.3599   -3160.0311    73.204914    63.397316    36.522956   -36358.076    -308925.9 
     300    1338.8163    169388.71    73.188478    73.188478    36.514755          120    -11147.42   -8486.9444   -76373.932   -577.58879   -1613.3698   -4128.0344    73.188478    63.383081    36.514755   -32002.766   -308918.06 
     310     1349.486    169276.86    73.172365    73.172365    36.506716          120    -8322.275    -6568.454   -67903.683   -98.595251   -2039.4421   -5353.1034    73.172365    63.369128    36.506716   -27598.137   -308952.44 
     320    1336.7647    169167.75    73.156641    73.156641    36.498871          120   -6263.2796   -4810.0763   -59002.763    551.63112   -1715.2011   -5988.2224    73.156641     63.35551    36.498871   -23358.706    -308941.2 
     330     1333.096    169061.77     73.14136    73.141361    36.491248          120    -4909.721   -4136.8487   -52381.493    1116.8481   -1316.2971   -6171.7286     73.14136    63.342276    36.491248   -20476.021   -308946.06 
     340    1342.5563    168959.05    73.126543    73.126544    36.483855          120   -3913.9816   -4052.4628   -53737.309    2371.6575   -1738.2017   -5579.9549    73.126543    63.329445    36.483855   -20567.918   -308976.48 
     350    1345.3027    168859.36    73.112159     73.11216    36.476679          120   -3910.2888   -4975.0397    -55675.99    608.90934   -51.457871   -3828.1942    73.112159    63.316988    36.476679   -21520.439   -308993.74 
     360    1349.9439    168762.31     73.09815     73.09815    36.469689          120   -6933.3371   -4754.2024   -63769.834    167.71685   -1043.9031   -3889.3005     73.09815    63.304855    36.469689   -25152.458    -309015.4 
     370    1344.3833    168667.26    73.084424    73.084424    36.462841          120    -8179.455   -4489.7198   -70454.464    339.73064   -2122.3211   -3579.0762    73.084424    63.292968    36.462841    -27707.88    -309018.4 
     380     1338.956    168573.74    73.070914    73.070914    36.456101          120   -6750.3932   -2873.6716   -69457.305     68.00303   -1884.4691   -3621.3541    73.070914    63.281268    36.456101   -26360.456    -309020.8 
     390    1338.4688    168481.69    73.057611    73.057611    36.449464          120   -5138.8509   -2928.8129   -65023.309   -602.86671   -1422.9555   -4306.6302    73.057611    63.269747    36.449464   -24363.657    -309032.9 
     400    1320.8861     168391.2    73.044529    73.044529    36.442937          120   -2052.8335    110.04159   -58899.628   -716.69762    213.71155   -3326.8306    73.044529    63.258418    36.442937   -20280.807   -309010.07 
     410    1335.3826    168302.55    73.031709    73.031709    36.436541          120    980.53482    3538.2864   -53058.921    3.4877222   -365.00949   -2788.4782    73.031709    63.247316    36.436541   -16180.033   -309049.51 
     420    1329.2766    168216.06    73.019196    73.019197    36.430298          120    4114.3087    4616.6639   -47611.999    392.84645     434.0385   -3156.1229    73.019196    63.236479    36.430298   -12960.342   -309049.15 
     430    1330.5651    168131.85     73.00701    73.007011    36.424219          120    3147.0284     3469.371   -48646.144     230.2476   -187.12682   -983.49266     73.00701    63.225926    36.424219   -14009.915   -309062.58 
     440    1335.8063    168049.65    72.995109     72.99511    36.418281          120    1296.0367    3056.4608   -50930.687    42.124534    87.030186   -1699.1343    72.995109     63.21562    36.418281   -15526.063   -309083.96 
     450    1348.5025    167969.03    72.983436    72.983436    36.412457          120    509.83428    2215.4718   -56429.267    52.689388   -30.263875   -1954.3859    72.983436     63.20551    36.412457    -17901.32   -309119.71 
     460    1324.2092    167889.61    72.971931    72.971931    36.406717          120    674.39764    2831.3778   -58079.587   -116.17797    -1105.848   -934.79391    72.971931    63.195546    36.406717    -18191.27    -309084.6 
     470    1328.7533     167811.2    72.960568    72.960569    36.401048          120    3011.1845    5781.1881   -57915.952   -901.00359    -491.8383   -1856.8012    72.960568    63.185706    36.401048   -16374.527   -309105.06 
     480    1329.8107    167733.83    72.949354    72.949355    36.395453          120    5556.5362    7006.8784   -56385.291   -1140.6446    38.349059   -2996.0088    72.949354    63.175995    36.395453   -14607.292   -309118.32 
     490    1310.6551    167657.64    72.938306    72.938307    36.389941          120     6866.474    7518.7334   -53334.262   -550.77041   -723.54816   -3279.0105    72.938306    63.166427    36.389941   -12983.018   -309091.58 
     500    1326.0587     167582.7    72.927438    72.927439    36.384519          120    7494.7049    10103.941   -51224.416   -225.62927   -696.83483   -4205.3128    72.927438    63.157015    36.384519    -11208.59   -309132.19 
     510    1313.2273    167509.13    72.916765    72.916765    36.379194          120    8285.7545    10967.198   -47485.076   -234.23736    505.28565   -5005.6942    72.916765    63.147771    36.379194   -9410.7077   -309116.86 
     520    1320.8154    167437.03    72.906301    72.906302    36.373973          120    8635.2013    11528.778   -45396.126   -60.623778    608.93353   -3337.8106    72.906301     63.13871    36.373973   -8410.7154   -309140.57 
     530    1321.8172    167366.39    72.896047    72.896048    36.368858          120    7526.7449    11532.788   -46269.196   -615.17479    420.76895   -2833.8356    72.896047    63.129829    36.368858   -9069.8879   -309152.51 
     540    1312.9705    167297.04    72.885977    72.885978    36.363834          120    7022.3975    10476.193   -47883.602   -169.67657    635.83136   -2760.5295    72.885977    63.121108    36.363834   -10128.337   -309144.54 
     550    1311.6743     167228.8    72.876065    72.876066    36.358888          120     9758.043    11690.904    -48330.55    11.553787     1105.832   -1037.7817    72.876065    63.112524    36.358888   -8960.5345    -309151.4 
     560    1313.6374    167161.68    72.866315    72.866315    36.354024          120    10838.005    13013.555   -47878.304   -362.70647   -427.03917    -1620.621    72.866315     63.10408    36.354024    -8008.915   -309163.01 
     570    1314.6504    167095.74    72.856732    72.856733    36.349243          120    11605.955    14343.126   -47801.543   -53.217618   -696.60994   -3214.6231    72.856732    63.095782    36.349243   -7284.1541   -309174.43 
     580    1319.2101    167030.99    72.847321    72.847321    36.344547          120     11538.62    13176.683   -45579.212    353.19554   -2065.8427   -2162.4988    72.847321    63.087631    36.344547   -6954.6363   -309191.91 
     590    1313.9771    166967.43    72.838079     72.83808    36.339937          120    12090.182    14105.354   -44481.431    62.406557   -522.25842   -3644.0783    72.838079    63.079628    36.339937   -6095.2983   -309190.42 
     600    1309.4091     166905.1    72.829014    72.829015    36.335414          120    12788.087    14925.589   -43122.655    70.357663   -1606.7818   -4662.0248    72.829014    63.071777    36.335414   -5136.3264   -309189.97 
     610    1314.2233    166844.05    72.820133    72.820134    36.330983          120     14286.92     13795.28   -40424.634   -497.01955   -2222.5051   -4146.9283    72.820133    63.064086    36.330983   -4114.1446   -309206.85 
     620    1310.4463    166784.32    72.811442    72.811443    36.326647          120    14385.004    13429.756   -41401.703   -427.91688   -1484.7041   -3418.6486    72.811442    63.056559    36.326647   -4528.9812    -309208.1 
     630     1313.026    166725.83     72.80293    72.802931      36.3224          120    16489.428    14041.629   -41661.932    622.85111   -1120.7251   -1636.9872     72.80293    63.049188      36.3224   -3710.2916   -309220.77 
     640    1324.3982    166668.63    72.794604    72.794604    36.318246          120    17688.765    16356.479   -39909.211    1409.0446    634.58283   -722.94856    72.794604    63.041977    36.318246   -1954.6555   -309250.64 
     650    1303.4262    166612.86    72.786484    72.786484    36.314195          120    17215.393    17041.789   -38565.106    1326.7239    2053.8132   -3101.3296    72.786484    63.034944    36.314195   -1435.9746   -309217.71 
     660    1304.0561     166558.5    72.778567    72.778567    36.310245          120    16643.066    15653.016   -40370.206   -168.35666    2598.0158   -2860.1754    72.778567    63.028088    36.310245    -2691.375   -309227.13 
     670     1318.637     166505.4    72.770832    72.770832    36.306386          120      17206.7    16442.372   -40564.558     480.1632    2223.8035   -2910.8598    72.770832    63.021389    36.306386    -2305.162   -309262.84 
     680    1296.9425    166453.54    72.763275    72.763275    36.302616          120    16016.258     17149.12   -39827.391    107.89427     1459.392   -3864.0026    72.763275    63.014845    36.302616    -2220.671   -309228.83 
     690    1307.6765    166402.88    72.755892    72.755893    36.298932          120    16293.497    16163.582   -37365.722    1047.5725    1757.8447   -2993.2876    72.755892    63.008451    36.298932   -1636.2144   -309256.91 
     700    1301.5625    166353.44    72.748687    72.748688    36.295338          120    16828.821    15283.992   -36789.549    708.57535    280.02448   -4114.4154    72.748687    63.002212    36.295338    -1558.912   -309252.33 
     710    1297.6483    166305.21    72.741655    72.741655    36.291829          120    17197.852    15398.225   -38270.968    351.33201     526.3224    -4296.739    72.741655    62.996122    36.291829   -1891.6308   -309250.81 
     720    1294.0991    166258.09    72.734785    72.734786    36.288402          120    15815.308     17348.73   -37659.426    497.68279     872.3332   -3918.9013    72.734785    62.990172    36.288402   -1498.4627   -309249.57 
     730     1305.026    166212.12     72.72808     72.72808    36.285056          120    16543.509    18882.423   -35418.684    341.72046    540.27386   -3954.0678     72.72808    62.984365    36.285056    2.4157407   -309275.96 
     740    1295.1118    166167.39    72.721556    72.721557    36.281802          120    18610.062    19124.697   -34912.556    276.25823     613.0357   -3354.2827    72.721556    62.978716    36.281802    940.73443   -309262.84 
     750    1305.6702    166123.99    72.715224    72.715224    36.278642          120    19247.523    19906.697   -37379.762    121.29183    2491.7202   -1649.9204    72.715224    62.973232    36.278642    591.48593   -309288.35 
     760    1293.3552    166081.86    72.709077    72.709077    36.275575          120    20604.613     19860.15   -36929.304    1246.2573     3830.327   -1414.0545    72.709077    62.967908    36.275575    1178.4862   -309270.15 
     770    1300.0811    166041.01    72.703115    72.703115    36.272601          120     21068.07    19980.228   -35430.246    1726.6601    3341.0675   -2980.6601    72.703115    62.962745    36.272601    1872.6838   -309288.01 
     780    1298.2557     166001.5    72.697348    72.697348    36.269724          120     21617.21    21988.312    -34390.71    2122.2474    985.46225   -2635.5578    72.697348    62.957751    36.269724    3071.6042   -309289.36 
     790    1296.2128    165963.41    72.691787    72.691787    36.266949          120    21723.942    22013.219   -35552.089    1428.9988    700.67444   -2844.4661    72.691787    62.952934    36.266949    2728.3574   -309289.94 
     800    1298.7483    165926.65    72.686419     72.68642    36.264271          120    20034.025    20918.751   -36812.334     452.9051    91.076123   -3336.1025    72.686419    62.948286    36.264271    1380.1475   -309298.75 
     810     1296.764    165891.05    72.681221    72.681222    36.261678          120    18764.309    21105.038   -34336.083   -221.87882   -1359.9537   -1148.1622    72.681221    62.943785    36.261678    1844.4212   -309298.72 
     820     1279.625    165856.64    72.676194    72.676195     36.25917          120    23137.594     21013.75   -32505.986    -300.7538    185.38068   -1790.7421    72.676194    62.939431     36.25917    3881.7858   -309269.05 
     830    1303.6327    165823.58    72.671366    72.671367    36.256761          120    25591.439    22324.167   -31770.145    848.61985    532.36804   -1846.3606    72.671366     62.93525    36.256761    5381.8205   -309319.36 
     840    1296.2786    165792.04    72.666759    72.666759    36.254462          120     26850.08    23875.482   -29936.039    684.35097    1421.5797   -1558.6605    72.666759     62.93126    36.254462     6929.841   -309308.49 
     850    1299.2582    165762.14     72.66239    72.662391    36.252283          120    24633.114    23656.901   -30751.449    876.28809    1619.8026   -2061.8762     72.66239    62.927476    36.252283    5846.1886    -309316.6 
     860    1292.0636    165733.73    72.658238    72.658238    36.250211          120    23131.374    22374.711   -34374.469   -372.70328    613.94474   -2530.2592    72.658238     62.92388    36.250211    3710.5387    -309305.3 
     870    1292.1404    165706.51     72.65426     72.65426    36.248226          120     23805.28    22661.704   -34647.476    214.82529    51.378358   -2654.3043     72.65426    62.920435    36.248226     3939.836   -309308.82 
     880     1285.935    165680.44     72.65045     72.65045    36.246326          120    24622.161    22283.943   -34854.281    657.89423   -536.00309   -2982.9697     72.65045    62.917136    36.246326    4017.2744   -309299.23 
     890    1301.6417    165655.52    72.646808    72.646808    36.244508          120     24227.86    20964.194   -32404.655   -57.179555    406.65433   -2838.8558    72.646808    62.913982    36.244508    4262.4663   -309330.41 
     900    1293.1591    165631.77    72.643335    72.643336    36.242776          120    23766.059    22087.524   -31691.863    92.980568   -237.20633   -1022.2636    72.643335    62.910974    36.242776    4720.5731   -309316.48 
     910    1291.4363    165609.16     72.64003     72.64003    36.241127          120    23393.904    22041.376   -32887.603    67.557312    255.07949   -1268.2105     72.64003    62.908112    36.241127    4182.5589   -309314.01 
     920    1289.9236    165587.62    72.636881    72.636881    36.239556          120    22608.166     24209.03   -33959.949   -77.356781    123.02579   -2667.7318    72.636881    62.905384    36.239556     4285.749   -309312.21 
     930    1296.1699    165567.16    72.633888    72.633888    36.238063          120     22951.98    24879.765   -30632.604    800.48502   -282.30621   -2687.1725    72.633888    62.902793    36.238063    5733.0471   -309325.05 
     940    1290.1746    165547.86    72.631066    72.631067    36.236655          120    23182.713    24798.815   -31262.852    968.12688   -806.23009   -2906.0739    72.631066    62.900349    36.236655    5572.8921   -309313.75 
     950    1298.8305    165529.72    72.628413    72.628413    36.235331          120    25777.552    25117.078   -31985.764    792.86972   -508.44491   -1134.3065    72.628413    62.898051    36.235331    6302.9555   -309331.04 
     960    1301.5065    165512.79    72.625936    72.625937    36.234095          120    26213.451    26880.429   -30586.415    565.70221    -1065.992   -2171.9429    72.625936    62.895906    36.234095    7502.4884   -309336.52 
     970    1300.7874    165497.16    72.623651    72.623652    36.232955          120     24363.34    26195.805   -29884.212     982.9459   -608.01741    -3141.812    72.623651    62.893927    36.232955    6891.6444   -309334.94 
     980    1289.8966    165482.75    72.621543    72.621543    36.231903          120    24929.546    25307.095   -30918.354    2068.5271   -456.55345    -1998.853    72.621543    62.892101    36.231903    6439.4291   -309314.68 
     990     1293.187    165469.47    72.619601    72.619601    36.230935          120    25677.973    25838.885   -30473.683    2618.1557   -651.52752   -1488.9732    72.619601     62.89042    36.230935    7014.3916   -309320.73 
    1000    1301.5039    165457.37     72.61783    72.617831    36.230051          120    26761.584    26627.199   -28289.974    1120.7439   -1267.3354    264.77688     72.61783    62.888886    36.230051    8366.2695   -309335.64 
Loop time of 418.275 on 1 procs for 1000 steps with 14848 atoms

Performance: 0.207 ns/day, 116.187 hours/ns, 2.391 timesteps/s
100.0% CPU use with 1 MPI tasks x no OpenMP threads

MPI task timing breakdown:
Section |  min time  |  avg time  |  max time  |%varavg| %total
---------------------------------------------------------------
Pair    | 306.49     | 306.49     | 306.49     |   0.0 | 73.27
Bond    | 0.00055456 | 0.00055456 | 0.00055456 |   0.0 |  0.00
Kspace  | 14.49      | 14.49      | 14.49      |   0.0 |  3.46
Neigh   | 88.118     | 88.118     | 88.118     |   0.0 | 21.07
Comm    | 0.63282    | 0.63282    | 0.63282    |   0.0 |  0.15
Output  | 0.013643   | 0.013643   | 0.013643   |   0.0 |  0.00
Modify  | 8.3566     | 8.3566     | 8.3566     |   0.0 |  2.00
Other   |            | 0.1726     |            |       |  0.04

Nlocal:    14848 ave 14848 max 14848 min
Histogram: 1 0 0 0 0 0 0 0 0 0
Nghost:    46552 ave 46552 max 46552 min
Histogram: 1 0 0 0 0 0 0 0 0 0
Neighs:    9.94451e+06 ave 9.94451e+06 max 9.94451e+06 min
Histogram: 1 0 0 0 0 0 0 0 0 0

Total # of neighbors = 9944508
Ave neighs/atom = 669.754
Ave special neighs/atom = 0
Neighbor list builds = 263
Dangerous builds = 0
PPPM initialization ...
  using 12-bit tables for long-range coulomb (../kspace.cpp:321)
  G vector (1/distance) = 0.202384
  grid = 36 50 24
  stencil order = 5
  estimated absolute RMS force accuracy = 0.00101147
  estimated relative force accuracy = 7.02424e-05
  using double precision FFTs
  3d grid and FFT values/proc = 65395 43200
Setting up Verlet run ...
  Unit style    : metal
  Current step  : 0
  Time step     : 0.001
Per MPI rank memory allocation (min/avg/max) = 150.3 | 150.3 | 150.3 Mbytes
Step Temp Volume Cella Cellb Cellc CellGamma Pxx Pyy Pzz Pxy Pxz Pyz Lx Ly Lz Press PotEng 
       0    1301.5039    165457.37     72.61783    72.617831    36.230051          120    26769.033    26635.098   -28288.356    1120.8375   -1267.2951     264.7942     72.61783    62.888886    36.230051    8371.9247   -309335.54 
  100000    1311.9512    168314.41    73.033424    73.033425    36.437397          120    15788.318    19300.511   -36637.696    172.55014   -2443.7476    1847.8323    73.033424    63.248801    36.437397   -516.28899   -309462.42 
Loop time of 41039.8 on 1 procs for 100000 steps with 14848 atoms

Performance: 0.211 ns/day, 113.999 hours/ns, 2.437 timesteps/s
100.0% CPU use with 1 MPI tasks x no OpenMP threads

MPI task timing breakdown:
Section |  min time  |  avg time  |  max time  |%varavg| %total
---------------------------------------------------------------
Pair    | 29893      | 29893      | 29893      |   0.0 | 72.84
Bond    | 0.054157   | 0.054157   | 0.054157   |   0.0 |  0.00
Kspace  | 1464.4     | 1464.4     | 1464.4     |   0.0 |  3.57
Neigh   | 8767.5     | 8767.5     | 8767.5     |   0.0 | 21.36
Comm    | 62.623     | 62.623     | 62.623     |   0.0 |  0.15
Output  | 0.00012803 | 0.00012803 | 0.00012803 |   0.0 |  0.00
Modify  | 835.42     | 835.42     | 835.42     |   0.0 |  2.04
Other   |            | 16.99      |            |       |  0.04

Nlocal:    14848 ave 14848 max 14848 min
Histogram: 1 0 0 0 0 0 0 0 0 0
Nghost:    46091 ave 46091 max 46091 min
Histogram: 1 0 0 0 0 0 0 0 0 0
Neighs:    9.77269e+06 ave 9.77269e+06 max 9.77269e+06 min
Histogram: 1 0 0 0 0 0 0 0 0 0

Total # of neighbors = 9772686
Ave neighs/atom = 658.182
Ave special neighs/atom = 0
Neighbor list builds = 26019
Dangerous builds = 0
 
All done!
Total wall time: 11:30:59
