LAMMPS (16 Mar 2018)
Reading data file ...
  triclinic box = (0 0 0) to (9.208 7.97436 18.376) with tilt (-4.604 0 0)
  1 by 1 by 1 MPI processor grid
  reading atoms ...
  116 atoms
Finding 1-2 1-3 1-4 neighbors ...
  special bond factors lj:   0          0          0         
  special bond factors coul: 0          0          0         
  0 = max # of 1-2 neighbors
  0 = max # of 1-3 neighbors
  0 = max # of 1-4 neighbors
  1 = max # of special neighbors
Replicating atoms ...
  triclinic box = (0 0 0) to (73.664 63.7949 36.752) with tilt (-36.832 0 0)
  1 by 1 by 1 MPI processor grid
  14848 atoms
Finding 1-2 1-3 1-4 neighbors ...
  special bond factors lj:   0          0          0         
  special bond factors coul: 0          0          0         
  0 = max # of 1-2 neighbors
  0 = max # of 1-3 neighbors
  0 = max # of 1-4 neighbors
  1 = max # of special neighbors
  Time spent = 0.00431204 secs
PPPM initialization ...
WARNING: System is not charge neutral, net charge = -0.2048 (../kspace.cpp:302)
  using 12-bit tables for long-range coulomb (../kspace.cpp:321)
  G vector (1/distance) = 0.201681
  grid = 36 50 24
  stencil order = 5
  estimated absolute RMS force accuracy = 0.00105653
  estimated relative force accuracy = 7.33721e-05
  using double precision FFTs
  3d grid and FFT values/proc = 65395 43200
Neighbor list info ...
  update every 1 steps, delay 0 steps, check yes
  max neighbors/atom: 2000, page size: 100000
  master list distance cutoff = 15.3
  ghost atom cutoff = 15.3
  binsize = 7.65, bins = 15 9 5
  3 neighbor lists, perpetual/occasional/extra = 3 0 0
  (1) pair morse, perpetual
      attributes: half, newton on
      pair build: half/bin/newton/tri
      stencil: half/bin/3d/newton/tri
      bin: standard
  (2) pair buck, perpetual, copy from (1)
      attributes: half, newton on
      pair build: copy
      stencil: none
      bin: none
  (3) pair lj/cut/coul/long, perpetual, copy from (1)
      attributes: half, newton on
      pair build: copy
      stencil: none
      bin: none
Setting up Verlet run ...
  Unit style    : metal
  Current step  : 0
  Time step     : 0.001
Per MPI rank memory allocation (min/avg/max) = 145.7 | 145.7 | 145.7 Mbytes
Step Temp Volume Cella Cellb Cellc CellGamma Pxx Pyy Pzz Pxy Pxz Pyz Lx Ly Lz Press PotEng 
       0          100    172711.88       73.664    73.664001       36.752          120   -203138.07   -203149.07   -274689.77    9.1738135   -2.5465215    3.3996334       73.664    63.794896       36.752   -226992.31   -308813.26 
      10    266.76868    172514.29    73.635898    73.635898    36.737979          120   -207458.34   -207541.52   -254231.18     75.62769   -3.9225807   -107.38833    73.635898    63.770559    36.737979   -223077.02   -309191.85 
      20    510.01895     171938.3    73.553854    73.553855    36.697047          120      -207439   -207148.77   -193073.84    15.589308    -154.0661   -227.73994    73.553854    63.699507    36.697047   -202553.87   -309760.08 
      30    451.43385    171074.98     73.43054    73.430541    36.635524          120   -186992.95   -186527.25   -109265.82   -184.85752   -566.79696   -286.16416     73.43054    63.592714    36.635524   -160928.67   -309783.59 
      40    214.22809    170122.05    73.293945    73.293946    36.567374          120   -154598.09    -154371.9   -31362.195   -382.06946   -977.15311   -348.65353    73.293945    63.474419    36.567374   -113444.06   -309432.77 
      50      284.277     169274.6     73.17204     73.17204    36.506554          120    -117619.6   -117583.33    2620.4806    -442.4808   -1093.1038   -516.14366     73.17204    63.368846    36.506554   -77527.484    -309623.3 
      60    608.56318    168592.81    73.073669     73.07367    36.457476          120   -84787.188    -84639.71   -31829.659   -544.31851   -2013.7792   -412.84538    73.073669    63.283654    36.457476   -67085.519   -310301.69 
      70    800.51701    168024.57    72.991479    72.991479     36.41647          120   -55213.834   -54763.759   -94176.028   -991.02971   -2490.9505   -273.99755    72.991479    63.212475     36.41647   -68051.207   -310771.49 
      80    648.11924    167506.47    72.916379    72.916379    36.379001          120   -31430.204   -31515.279   -133878.02   -1518.1341   -2922.5515    128.60098    72.916379    63.147437    36.379001   -65607.835   -310577.89 
      90    383.62086    167006.74    72.843795    72.843796    36.342788          120   -19080.111   -19426.781   -143912.75   -1709.6687   -3513.5233    373.40801    72.843795    63.084578    36.342788   -60806.549   -310139.99 
     100    431.55816    166520.08     72.77297    72.772971    36.307453          120   -2814.7339   -2397.9951   -121456.57   -1552.2704   -3342.3787    83.063529     72.77297    63.023241    36.307453   -42223.098   -310284.39 
     110    594.27168    166068.02    72.707056    72.707057    36.274567          120    14772.788    15315.991   -78018.623   -1532.5989   -2996.1478   -69.624773    72.707056    62.966159    36.274567   -15976.615   -310664.24 
     120    555.18386    165681.05    72.650539    72.650539     36.24637          120    22400.432    22932.449   -27007.164   -1574.1107   -2956.8829   -501.74411    72.650539    62.917213     36.24637    6108.5722   -310662.87 
     130     441.0488    165376.91    72.606058    72.606058    36.224178          120    17913.324    18989.177    12014.799   -1650.9383   -3185.5318   -677.59794    72.606058    62.878691    36.224178    16305.767   -310501.54 
     140    421.34866     165152.7     72.57323     72.57323    36.207799          120    11947.014    12646.524    20331.652    -1522.091   -3165.8847   -642.91342     72.57323    62.850261    36.207799    14975.063   -310508.91 
     150    494.00225    164989.09    72.549257    72.549258    36.195839          120    5576.2857    6700.6356   -9442.8021   -1634.8854   -2740.8088   -247.57652    72.549257      62.8295    36.195839     944.7064   -310701.21 
     160    534.65487    164854.01    72.529452    72.529453    36.185958          120   -4112.2452    -1980.279   -50171.728    -1585.016    -2841.873   -17.543605    72.529452    62.812349    36.185958   -18754.751   -310845.92 
     170    477.18063    164714.52     72.50899    72.508991    36.175749          120   -8575.0329   -5828.1056   -78191.843   -991.14207   -3099.4486   -248.08257     72.50899    62.794628    36.175749   -30864.994   -310803.76 
     180    400.00323    164553.39    72.485338    72.485339    36.163949          120   -3828.7993   -976.43788   -90335.406   -661.90411   -3055.0169     -266.299    72.485338    62.774145    36.163949   -31713.548   -310712.11 
     190    400.10232    164371.98    72.458692    72.458693    36.150655          120    2600.7687    5369.7904   -81879.452   -281.03941   -2598.9867    47.958414    72.458692    62.751069    36.150655   -24636.298   -310761.15 
     200    437.25913    164183.06    72.430922    72.430923      36.1368          120    6633.9713    9302.8914   -57275.511   -584.38527   -2308.0742    -179.5181    72.430922    62.727019      36.1368   -13779.549   -310885.76 
     210    425.37349    164003.02    72.404437    72.404437    36.123586          120    9829.8375    12623.428   -30852.754   -650.49185   -2462.1007    140.17143    72.404437    62.704082    36.123586   -2799.8295   -310918.35 
     220     383.7456    163845.76    72.381286    72.381287    36.112036          120    12486.933    14264.365   -13647.864   -131.75103   -2466.0304    143.14905    72.381286    62.684033    36.112036    4367.8115      -310888 
     230    370.49751    163717.43    72.362384    72.362384    36.102605          120     13318.16    13769.682   -12791.972    12.691758   -2930.3297   -210.23117    72.362384    62.667663    36.102605    4765.2897   -310906.16 
     240    384.98459    163613.85     72.34712    72.347121     36.09499          120    11119.873    10689.852   -25147.971    276.05313    -2905.407   -101.50376     72.34712    62.654445     36.09499   -1112.7488   -310978.49 
     250    391.34762    163522.88     72.33371     72.33371      36.0883          120    8141.7296     7603.606   -43597.598    303.52076   -2496.0091   -249.73678     72.33371    62.642831      36.0883   -9284.0874   -311037.94 
     260     368.1351    163431.29    72.320203    72.320203    36.081561          120     8482.492    8073.1662   -58644.414    57.356061   -2161.4221   -175.08091    72.320203    62.631133    36.081561   -14029.585   -311040.79 
     270    340.36708    163332.04    72.305559    72.305559    36.074255          120    10146.017     9667.634   -63878.407   -403.96765   -1757.2936    260.76867    72.305559    62.618451    36.074255   -14688.252   -311030.08 
     280    336.56511    163225.11    72.289776    72.289777    36.066381          120    12257.761    12880.981   -56865.247   -300.07989   -1351.4703    541.63906    72.289776    62.604783    36.066381   -10575.501   -311062.43 
     290    341.38146    163117.22    72.273845    72.273846    36.058432          120    15428.706    17652.812    -41797.35   -524.82682    -1621.426    667.59713    72.273845    62.590987    36.058432   -2905.2773   -311111.88 
     300    334.16244    163018.89     72.25932    72.259321    36.051186          120     17752.87    20531.798   -26551.399   -522.21319   -1829.9085    530.45759     72.25932    62.578407    36.051186    3911.0897   -311138.11 
     310    316.70551    162938.31    72.247413    72.247413    36.045245          120    17886.291    20880.656   -16550.827   -254.48959   -2754.3759    439.11609    72.247413    62.568096    36.045245    7405.3732   -311142.14 
     320    307.42811    162877.93    72.238488    72.238488    36.040792          120     15835.39    18841.265   -14962.503   -396.22807     -2899.83    175.71778    72.238488    62.560366    36.040792    6571.3843   -311160.19 
     330    308.03626    162834.06    72.232001    72.232001    36.037556          120    13880.614    16203.473   -21217.634   -602.06481   -2745.9576   -72.718854    72.232001    62.554748    36.037556     2955.484   -311196.58 
     340    304.18607    162799.47    72.226887    72.226887    36.035004          120    13147.211     14819.46    -33257.41   -273.81247   -2948.0327   -462.52557    72.226887    62.550319    36.035004   -1763.5796   -311224.05 
     350    292.00749    162766.45    72.222002    72.222002    36.032567          120    13266.494    15093.562   -43086.067   -107.42144    -2323.115   -545.10384    72.222002    62.546089    36.032567   -4908.6701   -311233.61 
     360    274.52863    162730.36    72.216663    72.216664    36.029904          120      14519.6    16607.523   -45467.234   -608.50367   -2191.8444   -1088.8226    72.216663    62.541466    36.029904   -4780.0369   -311230.69 
     370    268.86161    162691.52    72.210918    72.210918    36.027037          120    16272.455    18260.868   -42086.875   -930.23534   -2259.4165   -1148.7383    72.210918     62.53649    36.027037   -2517.8508   -311248.83 
     380    267.47509    162653.42    72.205281    72.205282    36.024225          120    17999.767    19778.906   -34448.803   -848.49368   -2480.3115    -768.4022    72.205281    62.531608    36.024225    1109.9565   -311275.25 
     390    265.22892    162621.03    72.200488    72.200488    36.021833          120    18416.888    20587.958   -25494.938   -702.46604   -2271.8042   -616.71901    72.200488    62.527457    36.021833    4503.3026   -311299.86 
     400    254.08194    162598.47    72.197149     72.19715    36.020168          120    18396.581    20519.641   -20127.895   -590.73671   -2485.8674   -460.69374    72.197149    62.524566    36.020168    6262.7759   -311305.97 
     410    249.82656    162587.21    72.195482    72.195482    36.019336          120    18713.692     20262.07   -20235.318   -260.56261    -2837.034   -493.93283    72.195482    62.523122    36.019336    6246.8148   -311323.98 
     420    246.80074    162586.06    72.195312    72.195312    36.019251          120    18541.847     20206.99   -24827.933    -224.2803   -3203.9973    83.965021    72.195312    62.522975    36.019251    4640.3013    -311344.1 
     430     241.6243    162591.63    72.196136    72.196137    36.019662          120    17570.931    18970.689   -31544.774   -792.32074   -3629.5461    799.50035    72.196136    62.523688    36.019662    1665.6156   -311358.87 
     440    232.57926    162599.17    72.197253    72.197253    36.020219          120    17316.115    18046.681   -36697.917   -920.95843   -3482.0613    1231.1565    72.197253    62.524655    36.020219    -445.0403   -311365.56 
     450    224.76678    162605.56    72.198198    72.198198    36.020691          120    18500.173    18406.074   -38792.356   -932.90589   -2920.4244    884.16304    72.198198    62.525474    36.020691   -628.70323   -311372.78 
     460    219.54366     162610.6    72.198944    72.198944    36.021063          120    20411.386    18778.396    -37286.06    -737.1623   -2335.2242    387.37553    72.198944     62.52612    36.021063    634.57407   -311384.44 
     470     217.0921    162616.19    72.199772    72.199772    36.021476          120    21456.336    18756.868    -32724.02   -255.19506   -2224.4531     191.3047    72.199772    62.526837    36.021476    2496.3946   -311400.08 
     480    212.03594    162625.05    72.201083    72.201083     36.02213          120    21858.287    19258.869   -26984.457   -98.778323   -2629.8436    64.948208    72.201083    62.527972     36.02213    4710.8999    -311411.3 
     490    206.90945     162639.9    72.203281    72.203281    36.023227          120    21520.845     19720.24   -24621.047    178.21334   -2989.8115    298.27401    72.203281    62.529876    36.023227    5540.0128   -311421.61 
     500    203.67821    162661.42    72.206465    72.206465    36.024815          120    20154.594    19458.719   -25688.627    137.93825   -3627.4469    736.98108    72.206465    62.532634    36.024815    4641.5619   -311434.52 
     510    199.38739    162687.79    72.210367    72.210367    36.026762          120    18775.475    18369.576   -28842.725    37.361218   -3598.2665    1208.9771    72.210367    62.536013    36.026762     2767.442   -311444.97 
     520    194.18907     162715.9    72.214525    72.214525    36.028836          120    17672.084    17325.396   -33227.176     274.2011   -3571.2098    1708.3318    72.214525    62.539614    36.028836    590.10137   -311452.97 
     530    188.95835    162742.53    72.218464    72.218465    36.030802          120    17120.518     16859.78   -36520.709    556.52457   -3276.5771    2059.2293    72.218464    62.543025    36.030802    -846.8038   -311460.25 
     540    183.09037    162765.78    72.221903    72.221904    36.032518          120    16930.787    17222.875   -37353.871    497.67643   -2984.3474    1742.3528    72.221903    62.546004    36.032518   -1066.7364   -311465.44 
     550    180.82558    162785.61    72.224836    72.224837    36.033981          120    16902.981    17829.109   -35647.475    359.59518   -2732.3942    1170.6022    72.224836    62.548543    36.033981   -305.12813   -311476.44 
     560     176.0688    162803.43    72.227472    72.227472    36.035296          120    17190.097    18415.976   -32342.379    557.60776   -2515.1972    1049.5395    72.227472    62.550826    36.035296    1087.8979   -311482.39 
     570    171.70948    162821.37    72.230124    72.230124    36.036619          120    17381.254    19046.821   -29622.551    628.71983   -2766.9965    851.96185    72.230124    62.553123    36.036619     2268.508   -311488.64 
     580    168.68566    162841.21    72.233058    72.233059    36.038083          120    17469.931    19697.343   -27573.468    617.74381   -2999.7858    897.36691    72.233058    62.555664    36.038083    3197.9349   -311496.99 
     590    167.09299    162864.07    72.236438    72.236438    36.039769          120    17343.295    19233.879   -27565.273    642.15664   -3275.0524     848.6572    72.236438    62.558591    36.039769     3003.967   -311507.49 
     600    164.18956     162889.5    72.240197    72.240197    36.041645          120    17251.421    18386.699   -29368.985    490.34423   -3517.5752    881.18216    72.240197    62.561846    36.041645    2089.7118   -311515.05 
     610    161.70981    162915.92    72.244103    72.244103    36.043593          120    16773.612    17724.464   -32707.698     495.9896   -4028.9823    1180.4298    72.244103    62.565229    36.043593    596.79246   -311523.13 
     620    158.97394    162941.21    72.247841    72.247842    36.045459          120    16537.152    17320.172   -35024.448     273.1712   -3762.4972    1132.9921    72.247841    62.568466    36.045459   -389.04149    -311530.1 
     630    156.01043    162964.02    72.251213    72.251213    36.047141          120    16291.986     16994.12   -35565.308    200.80543   -3583.2693     978.7099    72.251213    62.571386    36.047141   -759.73378   -311536.57 
     640    152.65438    162983.97     72.25416    72.254161    36.048611          120     15993.34    16759.062    -35241.42    64.258278   -3141.0723    1164.4596     72.25416    62.573939    36.048611   -829.67283   -311541.93 
     650    149.02157    163001.26    72.256715    72.256715    36.049886          120    16171.155    17254.285   -33779.282    -196.8491   -2678.7614    1055.2586    72.256715    62.576151    36.049886   -117.94769   -311546.17 
     660    146.03113    163017.07    72.259052    72.259052    36.051052          120    16550.354    17647.265   -32058.227    19.959252   -2663.2467    873.68434    72.259052    62.578175    36.051052    713.13058    -311551.9 
     670    143.03186    163032.69    72.261359    72.261359    36.052203          120    16691.275    17384.654   -31275.097    390.06443   -3015.1335    576.15296    72.261359    62.580173    36.052203    933.61077   -311556.74 
     680    141.44519    163048.48    72.263692    72.263692    36.053367          120    16291.407    17031.361   -31293.325    250.02629   -3410.2765    590.22825    72.263692    62.582193    36.053367    676.48109   -311563.78 
     690    138.85777     163064.1    72.265999    72.265999    36.054518          120     16144.58    16917.745   -32518.014    184.78696   -3440.5961    905.12517    72.265999    62.584192    36.054518    181.43691   -311568.62 
     700    137.89966    163078.75    72.268164    72.268164    36.055598          120    15736.124    16276.599   -34600.224   -18.522642   -3550.1866    1230.1036    72.268164    62.586066    36.055598   -862.50029   -311576.38 
     710    135.64507    163091.13    72.269992    72.269993     36.05651          120    15428.383    16092.355   -35410.418   -347.16623   -3341.4038    1352.6228    72.269992     62.58765     36.05651     -1296.56   -311581.29 
     720    133.35627    163100.73     72.27141     72.27141    36.057217          120    15375.476    16490.442   -35643.081   -546.77992   -3170.6949    1229.9565     72.27141    62.588877    36.057217   -1259.0544    -311585.7 
     730    131.54662     163107.8    72.272454    72.272455    36.057738          120    15787.294    16734.633   -35092.516   -543.48544   -2851.0851    1095.1724    72.272454    62.589782    36.057738   -856.86293   -311590.77 
     740    129.43662    163113.09    72.273236    72.273237    36.058128          120    15669.644    17039.274   -33868.115   -407.47035   -2227.2012    1264.3065    72.273236    62.590459    36.058128   -386.39937   -311594.97 
     750    127.45777    163117.39    72.273871    72.273872    36.058445          120    15348.935    16875.626   -32726.023   -415.43241   -2184.7885    1534.6318    72.273871    62.591009    36.058445   -167.15412   -311599.16 
     760    125.06841    163121.16    72.274428    72.274428    36.058723          120    15506.816    16564.682    -31916.51    -312.6154   -2403.5007    1817.5736    72.274428    62.591491    36.058723    51.662502   -311602.47 
     770    123.81505    163124.66    72.274945    72.274945    36.058981          120    15594.026    16176.947   -32492.539   -393.00604   -2613.0305    1935.3021    72.274945    62.591939    36.058981   -240.52212   -311607.82 
     780     122.6182    163127.57    72.275374    72.275374    36.059195          120     15565.98    16144.421   -33287.689   -492.33819   -2753.2073    1520.5292    72.275374     62.59231    36.059195   -525.76267   -311613.16 
     790    120.19387    163129.47    72.275656    72.275656    36.059336          120    15350.958    15763.038   -33539.949   -302.46975   -2669.7946    1618.8151    72.275656    62.592554    36.059336   -808.65109   -311615.64 
     800    119.21913    163130.06    72.275742    72.275742    36.059378          120    15754.032    15741.988   -34185.361   -301.83989   -2801.8467    1725.5389    72.275742    62.592629    36.059378   -896.44697   -311620.35 
     810    118.21653    163129.25    72.275623    72.275623    36.059319          120    15771.573    16059.153   -34591.516   -159.42906   -3117.0318    1351.6972    72.275623    62.592526    36.059319   -920.26326    -311624.7 
     820     114.6413    163127.14    72.275311    72.275311    36.059164          120    16048.089    16075.747   -34736.475    142.58891   -2914.8982    1616.9866    72.275311    62.592256    36.059164   -870.87965   -311624.02 
     830    113.15428    163123.85    72.274824    72.274825    36.058921          120    16287.739    15996.528   -34663.625    88.948181   -2550.5928    1856.0252    72.274824    62.591835    36.058921   -793.11915   -311627.12 
     840    112.49282    163119.59    72.274196    72.274197    36.058607          120        16568    16152.192   -34477.987   -104.61194   -2197.6442    2170.6887    72.274196     62.59129    36.058607   -585.93188   -311631.83 
     850    111.87132    163114.68    72.273471    72.273472    36.058246          120    16634.661     15755.15   -34282.984   -185.99519   -2233.9025     2376.117    72.273471    62.590663    36.058246    -631.0578   -311636.58 
     860    110.45796    163109.19     72.27266     72.27266    36.057841          120    16690.264    15741.349   -33771.122   -145.00761   -2374.5258    2206.3529     72.27266     62.58996    36.057841   -446.50303   -311639.32 
     870    108.82524    163103.39    72.271803    72.271804    36.057413          120    16571.824    16181.031   -33311.056    -226.2958   -2586.5617    1840.3563    72.271803    62.589218    36.057413   -186.06694   -311641.17 
     880    107.96665    163097.66    72.270956    72.270957    36.056991          120    16287.641    16564.481   -33215.824   -108.06679   -2959.9901    1355.9228    72.270956    62.588485    36.056991   -121.23402   -311644.68 
     890     107.0367    163092.08    72.270133    72.270133     36.05658          120    16553.003    16580.966   -33766.051    103.99283   -2896.0999    1491.6587    72.270133    62.587772     36.05658   -210.69369   -311647.58 
     900    103.99946    163086.56    72.269318    72.269318    36.056174          120    16728.585    16728.129   -33913.349   -96.416283   -3055.2273    1108.7673    72.269318    62.587066    36.056174   -152.21191   -311646.51 
     910    103.28516    163081.16    72.268519     72.26852    36.055775          120    16667.227     16513.77   -33588.363   -224.58689     -3141.33     1155.504    72.268519    62.586374    36.055775   -135.78841   -311649.19 
     920    103.47215    163075.89    72.267742    72.267742    36.055387          120    16577.126     16507.76   -33269.721   -353.93835   -2621.3484    1685.9693    72.267742    62.585701    36.055387   -61.611631   -311653.46 
     930    103.33881    163070.88    72.267001    72.267001    36.055018          120    16401.364    17128.655   -33165.945   -477.65017   -2784.4065     1954.048    72.267001    62.585059    36.055018    121.35828   -311656.88 
     940    102.01397     163066.4    72.266339     72.26634    36.054687          120    16616.137    17486.518   -32355.685   -337.52836   -2909.2143    2039.9383    72.266339    62.584486    36.054687    582.32345   -311657.95 
     950    101.43173    163063.04    72.265843    72.265844     36.05444          120    16551.503    17775.936   -31769.103   -259.65401   -3017.3251    1690.8684    72.265843    62.584057     36.05444    852.77856   -311660.58 
     960    100.34522    163061.13     72.26556    72.265561    36.054299          120    16420.065    17893.349     -32053.9    -140.9936   -3069.9583     1321.637     72.26556    62.583812    36.054299     753.1712   -311662.14 
     970    99.715855    163060.46    72.265461    72.265462    36.054249          120    16455.228    17946.408   -32757.493    109.10554   -3136.7787    654.20464    72.265461    62.583726    36.054249    548.04749   -311664.28 
     980    98.069993    163060.62    72.265486    72.265486    36.054262          120    16463.809    17585.652   -33618.742   -37.091874   -3291.7931    411.06326    72.265486    62.583747    36.054262    143.57319   -311663.89 
     990    96.739343    163060.98    72.265538    72.265539    36.054288          120      16482.2    16984.111   -34431.646   -234.27773   -3009.0316    198.12298    72.265538    62.583793    36.054288   -321.77812   -311664.06 
    1000    96.630749     163060.9    72.265527    72.265527    36.054282          120    16545.413    17273.635   -34575.345   -402.16628   -3017.7589    32.024067    72.265527    62.583783    36.054282   -252.09922   -311666.89 
Loop time of 382.93 on 1 procs for 1000 steps with 14848 atoms

Performance: 0.226 ns/day, 106.369 hours/ns, 2.611 timesteps/s
100.0% CPU use with 1 MPI tasks x no OpenMP threads

MPI task timing breakdown:
Section |  min time  |  avg time  |  max time  |%varavg| %total
---------------------------------------------------------------
Pair    | 313.77     | 313.77     | 313.77     |   0.0 | 81.94
Bond    | 0.00058031 | 0.00058031 | 0.00058031 |   0.0 |  0.00
Kspace  | 14.54      | 14.54      | 14.54      |   0.0 |  3.80
Neigh   | 45.45      | 45.45      | 45.45      |   0.0 | 11.87
Comm    | 0.4884     | 0.4884     | 0.4884     |   0.0 |  0.13
Output  | 0.013664   | 0.013664   | 0.013664   |   0.0 |  0.00
Modify  | 8.5073     | 8.5073     | 8.5073     |   0.0 |  2.22
Other   |            | 0.1563     |            |       |  0.04

Nlocal:    14848 ave 14848 max 14848 min
Histogram: 1 0 0 0 0 0 0 0 0 0
Nghost:    46884 ave 46884 max 46884 min
Histogram: 1 0 0 0 0 0 0 0 0 0
Neighs:    1.00918e+07 ave 1.00918e+07 max 1.00918e+07 min
Histogram: 1 0 0 0 0 0 0 0 0 0

Total # of neighbors = 10091834
Ave neighs/atom = 679.676
Ave special neighs/atom = 0
Neighbor list builds = 135
Dangerous builds = 0
PPPM initialization ...
  using 12-bit tables for long-range coulomb (../kspace.cpp:321)
  G vector (1/distance) = 0.202621
  grid = 36 50 24
  stencil order = 5
  estimated absolute RMS force accuracy = 0.000996622
  estimated relative force accuracy = 6.92116e-05
  using double precision FFTs
  3d grid and FFT values/proc = 65395 43200
Setting up Verlet run ...
  Unit style    : metal
  Current step  : 0
  Time step     : 0.001
Per MPI rank memory allocation (min/avg/max) = 151.5 | 151.5 | 151.5 Mbytes
Step Temp Volume Cella Cellb Cellc CellGamma Pxx Pyy Pzz Pxy Pxz Pyz Lx Ly Lz Press PotEng 
       0    96.630749     163060.9    72.265527    72.265527    36.054282          120    16558.333    17287.365   -34567.165   -401.88348   -3017.4561    31.905258    72.265527    62.583783    36.054282   -240.48896   -311666.69 
  100000    99.053877    163531.15    72.334929     72.33493    36.088908          120    16524.676    16510.578   -33878.669    -115.7467   -2438.7456     1032.197    72.334929    62.643887    36.088908   -281.13849   -311706.22 
Loop time of 35315.1 on 1 procs for 100000 steps with 14848 atoms

Performance: 0.245 ns/day, 98.097 hours/ns, 2.832 timesteps/s
100.0% CPU use with 1 MPI tasks x no OpenMP threads

MPI task timing breakdown:
Section |  min time  |  avg time  |  max time  |%varavg| %total
---------------------------------------------------------------
Pair    | 30677      | 30677      | 30677      |   0.0 | 86.87
Bond    | 0.05613    | 0.05613    | 0.05613    |   0.0 |  0.00
Kspace  | 1449.9     | 1449.9     | 1449.9     |   0.0 |  4.11
Neigh   | 2272.5     | 2272.5     | 2272.5     |   0.0 |  6.44
Comm    | 43.096     | 43.096     | 43.096     |   0.0 |  0.12
Output  | 0.00020909 | 0.00020909 | 0.00020909 |   0.0 |  0.00
Modify  | 856.06     | 856.06     | 856.06     |   0.0 |  2.42
Other   |            | 16.13      |            |       |  0.05

Nlocal:    14848 ave 14848 max 14848 min
Histogram: 1 0 0 0 0 0 0 0 0 0
Nghost:    46814 ave 46814 max 46814 min
Histogram: 1 0 0 0 0 0 0 0 0 0
Neighs:    1.00625e+07 ave 1.00625e+07 max 1.00625e+07 min
Histogram: 1 0 0 0 0 0 0 0 0 0

Total # of neighbors = 10062515
Ave neighs/atom = 677.702
Ave special neighs/atom = 0
Neighbor list builds = 6732
Dangerous builds = 0
 
All done!
Total wall time: 9:54:59
