LAMMPS (16 Mar 2018)
Reading data file ...
  triclinic box = (0 0 0) to (9.208 7.97436 18.376) with tilt (-4.604 0 0)
  1 by 1 by 1 MPI processor grid
  reading atoms ...
  116 atoms
Finding 1-2 1-3 1-4 neighbors ...
  special bond factors lj:   0          0          0         
  special bond factors coul: 0          0          0         
  0 = max # of 1-2 neighbors
  0 = max # of 1-3 neighbors
  0 = max # of 1-4 neighbors
  1 = max # of special neighbors
Replicating atoms ...
  triclinic box = (0 0 0) to (73.664 63.7949 36.752) with tilt (-36.832 0 0)
  1 by 1 by 1 MPI processor grid
  14848 atoms
Finding 1-2 1-3 1-4 neighbors ...
  special bond factors lj:   0          0          0         
  special bond factors coul: 0          0          0         
  0 = max # of 1-2 neighbors
  0 = max # of 1-3 neighbors
  0 = max # of 1-4 neighbors
  1 = max # of special neighbors
  Time spent = 0.00344086 secs
PPPM initialization ...
WARNING: System is not charge neutral, net charge = -0.2048 (../kspace.cpp:302)
  using 12-bit tables for long-range coulomb (../kspace.cpp:321)
  G vector (1/distance) = 0.201681
  grid = 36 50 24
  stencil order = 5
  estimated absolute RMS force accuracy = 0.00105653
  estimated relative force accuracy = 7.33721e-05
  using double precision FFTs
  3d grid and FFT values/proc = 65395 43200
Neighbor list info ...
  update every 1 steps, delay 0 steps, check yes
  max neighbors/atom: 2000, page size: 100000
  master list distance cutoff = 15.3
  ghost atom cutoff = 15.3
  binsize = 7.65, bins = 15 9 5
  3 neighbor lists, perpetual/occasional/extra = 3 0 0
  (1) pair morse, perpetual
      attributes: half, newton on
      pair build: half/bin/newton/tri
      stencil: half/bin/3d/newton/tri
      bin: standard
  (2) pair buck, perpetual, copy from (1)
      attributes: half, newton on
      pair build: copy
      stencil: none
      bin: none
  (3) pair lj/cut/coul/long, perpetual, copy from (1)
      attributes: half, newton on
      pair build: copy
      stencil: none
      bin: none
Setting up Verlet run ...
  Unit style    : metal
  Current step  : 0
  Time step     : 0.001
Per MPI rank memory allocation (min/avg/max) = 145.7 | 145.7 | 145.7 Mbytes
Step Temp Volume Cella Cellb Cellc CellGamma Pxx Pyy Pzz Pxy Pxz Pyz Lx Ly Lz Press PotEng 
       0         1700    172711.88       73.664    73.664001       36.752          120   -183966.44   -184276.62   -255764.48    135.15565    -43.22119     57.82001       73.664    63.794896       36.752   -208002.51   -308813.26 
      10    1009.1026    172701.49    73.662523    73.662524    36.751263          120   -166705.88   -166783.46   -210964.96    120.77287   -8.4075694   -436.96252    73.662523    63.793617    36.751263   -181484.76    -307488.6 
      20    1334.1494    172672.44    73.658393    73.658393    36.749203          120   -144315.99   -145400.76   -145662.57    336.31769    176.31654   -726.36899    73.658393     63.79004    36.749203   -145126.44   -308106.57 
      30    1446.7704    172628.71    73.652174    73.652175      36.7461          120    -95327.58   -96000.514   -68380.983   -278.13428   -875.21813   -657.52036    73.652174    63.784655      36.7461   -86569.693   -308305.52 
      40    1233.9347     172576.1    73.644691    73.644691    36.742366          120   -54243.375   -55430.946   -3493.8525   -1884.2134   -625.01113   -498.44121    73.644691    63.778174    36.742366   -37722.724   -307874.12 
      50    1380.0542    172519.33    73.636614    73.636615    36.738337          120    -41269.72   -42102.815   -7253.2532   -493.95575    158.77116   -938.91131    73.636614    63.771179    36.738337   -30208.596   -308129.37 
      60    1553.2155    172459.34    73.628079    73.628079    36.734078          120   -41683.164   -40895.528   -55585.221   -1487.9761   -1314.3135   -880.08407    73.628079    63.763787    36.734078   -46054.638   -308436.16 
      70    1643.3941    172394.77    73.618888    73.618889    36.729493          120   -39957.079   -42485.805    -112552.9   -1935.9779   -1993.5627   -407.22471    73.618888    63.755828    36.729493   -64998.596   -308589.94 
      80    1533.7196     172323.8    73.608786    73.608786    36.724453          120   -42808.087   -46038.605   -148140.02   -1708.1851    -1465.378   -702.72825    73.608786    63.747079    36.724453   -78995.571   -308361.68 
      90    1368.5355    172245.18    73.597588    73.597589    36.718866          120    -41786.07   -42115.817   -153614.95   -832.83176   -2577.4256   -2194.7958    73.597588    63.737382    36.718866   -79172.281   -308025.03 
     100    1427.8372    172159.05    73.585319     73.58532    36.712745          120   -26346.211   -25291.256   -132771.89   -1474.0004    -2155.435    -2553.171    73.585319    63.726756    36.712745   -61469.787   -308119.87 
     110    1543.4836    172067.24    73.572236    73.572237    36.706218          120   -9688.8311   -9800.4616   -100459.48   -1933.1718   -882.35257   -3000.9243    73.572236    63.715426    36.706218   -39982.925   -308320.82 
     120    1569.7004    171972.04    73.558666    73.558667    36.699448          120   -1361.5084   -2209.9669   -62096.207   -1343.1468    230.90548   -1648.8276    73.558666    63.703674    36.699448   -21889.228   -308350.34 
     130    1532.1469    171875.45    73.544892    73.544892    36.692575          120   -246.50458   -1090.2166   -32741.116    248.46237    -163.6877   -1833.0032    73.544892    63.691745    36.692575   -11359.279   -308258.28 
     140     1508.255    171778.68    73.531087    73.531087    36.685688          120   -3880.5112   -5393.3696   -22200.656     43.28039   -1360.2682    -2869.874    73.531087     63.67979    36.685688   -10491.512   -308192.14 
     150    1536.0906    171681.96    73.517283    73.517284    36.678801          120   -10319.535   -11809.637   -36628.632   -1200.4801   -1612.1949   -1850.6148    73.517283    63.667836    36.678801   -19585.935   -308225.39 
     160     1593.347    171584.59    73.503381    73.503382    36.671865          120   -17768.217   -15617.954    -62977.66   -692.80017   -1377.9701   -3369.6623    73.503381    63.655796    36.671865   -32121.277      -308316 
     170    1606.6325    171485.49    73.489229    73.489229    36.664804          120   -18709.812     -20357.4   -89843.896   -877.83758   -3669.5012   -3603.5606    73.489229     63.64354    36.664804   -42970.369   -308323.02 
     180    1573.1868    171383.84    73.474704    73.474705    36.657558          120   -17088.597   -19475.309   -104597.53    590.87967   -3667.6527   -3945.3673    73.474704    63.630961    36.657558   -47053.811   -308242.98 
     190    1558.1506    171279.41    73.459779    73.459779    36.650111          120   -16875.781   -14948.906   -106507.71    822.65252   -4890.3032   -3917.8546    73.459779    63.618035    36.650111   -46110.799   -308197.95 
     200    1577.1825    171172.58    73.444502    73.444502    36.642489          120   -12203.485   -13799.763   -94777.751   -600.03176   -6251.5528   -4712.4988    73.444502    63.604805    36.642489   -40260.333   -308216.58 
     210    1596.0586    171064.13    73.428989    73.428989     36.63475          120    -8523.539   -9580.2491   -79327.681    531.32896   -3507.9956    -4361.603    73.428989     63.59137     36.63475   -32477.156   -308234.62 
     220    1610.7027    170955.09    73.413383    73.413383    36.626964          120   -6094.5109   -6371.5773   -64942.258   -1610.3305   -1965.0168   -4060.0996    73.413383    63.577855    36.626964   -25802.782   -308244.28 
     230     1606.313    170846.31    73.397809     73.39781    36.619194          120    -5221.132    -5254.968   -55038.648   -1748.7568   -2659.8874   -5346.7028    73.397809    63.564368    36.619194   -21838.249   -308217.55 
     240    1611.7592    170738.39    73.382351    73.382352    36.611481          120   -5375.6815   -5867.2112   -53279.098   -1183.4475   -1747.3151   -5937.9556    73.382351    63.550981    36.611481    -21507.33   -308209.63 
     250    1625.4755    170631.56    73.367043    73.367044    36.603844          120   -5184.6032   -5748.2286   -56407.882   -722.51727   -2556.5782   -5357.8968    73.367043    63.537724    36.603844   -22446.905   -308218.56 
     260    1660.6668    170525.86    73.351891    73.351891    36.596284          120   -7375.3599   -8496.3426   -65978.918   -923.90774   -2898.2814   -4733.8962    73.351891    63.524602    36.596284    -27283.54    -308269.7 
     270    1676.1672    170420.99    73.336851    73.336851    36.588781          120   -10292.818   -10788.129   -76774.568   -841.11917   -3088.1314   -4473.9487    73.336851    63.511576    36.588781   -32618.505   -308285.09 
     280    1658.7508    170316.57    73.321869    73.321869    36.581306          120   -13446.443   -11354.862   -84757.556   -490.51374   -3721.1974    -3576.128    73.321869    63.498602    36.581306    -36519.62   -308237.85 
     290    1655.1813    170212.39    73.306917    73.306917    36.573846          120   -11334.244   -8263.4851   -84078.636   -2367.6126   -3180.5124   -2353.8506    73.306917    63.485653    36.573846   -34558.788   -308217.11 
     300     1685.227    170108.79     73.29204     73.29204    36.566424          120    -7553.221    -5480.048   -76404.909   -2604.9985   -2993.8383   -3330.3924     73.29204    63.472769    36.566424   -29812.726   -308261.82 
     310    1693.3834    170006.33    73.277322    73.277323    36.559081          120   -2838.2928   -3937.9069   -65738.239   -1734.7625   -2421.0595   -2494.5778    73.277322    63.460023    36.559081    -24171.48   -308264.45 
     320    1677.9172    169905.63    73.262851    73.262852    36.551861          120   -255.88648   -811.18772   -58784.871    207.60733    -1836.225    -2991.526    73.262851    63.447491    36.551861   -19950.648   -308221.51 
     330    1677.5939    169807.15    73.248693    73.248694    36.544798          120    85.644029    480.20687   -51051.861    534.66001   -2295.0832   -2552.8255    73.248693     63.43523    36.544798    -16828.67   -308208.47 
     340    1686.8901    169711.17     73.23489     73.23489    36.537911          120    889.27176      1078.56   -50202.598    55.996301    -3277.294   -2661.5497     73.23489    63.423276    36.537911   -16078.256   -308213.17 
     350    1700.5509    169617.72    73.221447    73.221447    36.531204          120    1457.1566   -373.61559   -54092.046   -2562.2533   -1743.7201   -4100.1993    73.221447    63.411634    36.531204   -17669.501   -308228.22 
     360    1710.4869    169526.64    73.208338    73.208338    36.524664          120    479.69272     779.7477   -60962.565   -2051.1733   -2573.8716   -3774.1196    73.208338    63.400281    36.524664   -19901.042   -308236.34 
     370    1697.3274    169437.66    73.195527    73.195528    36.518272          120    1185.3889    2281.4899   -65161.417   -1319.0458   -2712.4166   -4334.1042    73.195527    63.389186    36.518272   -20564.846    -308200.5 
     380    1717.6174    169350.62    73.182992    73.182993    36.512018          120    124.07558    4193.3154   -66648.885   -248.63449   -3332.0548   -2560.5612    73.182992    63.378331    36.512018   -20777.165   -308230.78 
     390    1705.3411    169265.46    73.170722    73.170722    36.505897          120   -409.38539    4285.3643   -64754.447   -678.06965    -2700.302   -1752.5431    73.170722    63.367705    36.505897   -20292.823   -308198.63 
     400     1695.435    169182.15    73.158717    73.158717    36.499907          120    2536.9776     5017.993   -58418.557   -715.74877   -1054.7343    466.84469    73.158717    63.357308    36.499907   -16954.529   -308171.15 
     410    1718.0143    169100.89    73.147001    73.147002    36.494062          120    5323.1293    5399.3542   -53476.243   -628.91604   -1157.6098   -604.62408    73.147001    63.347162    36.494062   -14251.253   -308207.04 
     420    1735.9797    169021.85    73.135603    73.135603    36.488375          120    9721.3607    7576.0937   -48224.779    477.99141   -1347.5767   -1154.0977    73.135603    63.337291    36.488375   -10309.108    -308234.3 
     430    1728.4982    168945.25    73.124552    73.124553    36.482862          120    8561.9007    8298.5695   -44852.339    1833.2535   -1595.1721   -1421.1508    73.124552    63.327721    36.482862    -9330.623   -308214.15 
     440    1731.9656    168871.04    73.113845    73.113845     36.47752          120    7452.1251    8724.3947   -46168.808    554.51288   -2689.1682   -1093.6062    73.113845    63.318448     36.47752   -9997.4293   -308216.18 
     450    1749.7373    168799.04    73.103452    73.103453    36.472335          120    6464.5875    9133.8047   -50101.297   -1403.2247      -2096.6    2402.9762    73.103452    63.309447    36.472335   -11500.968   -308246.89 
     460    1741.6332    168728.94    73.093331    73.093331    36.467285          120    6978.8515    6842.0214   -55885.125   -1622.0802   -2033.9656    987.77932    73.093331    63.300682    36.467285   -14021.417   -308229.34 
     470     1736.616     168660.4    73.083433    73.083433    36.462347          120    8352.4381    7746.5353    -57966.28   -671.17027   -1949.3599   -300.48133    73.083433     63.29211    36.462347   -13955.769   -308220.84 
     480    1744.8585     168593.3     73.07374     73.07374    36.457511          120    8890.1927    8921.0904   -57933.272   -1506.5106   -2744.8586   -1759.9342     73.07374    63.283715    36.457511   -13373.996   -308238.04 
     490    1736.5586    168527.58    73.064243    73.064243    36.452773          120    9365.5901    8441.9779   -56644.724   -1580.4182   -3653.3279   -536.95641    73.064243    63.275491    36.452773   -12945.719    -308223.9 
     500    1746.4972    168463.15    73.054931    73.054932    36.448127          120    8837.0781    8887.4197   -53342.602   -340.64598    -3110.779   -857.02387    73.054931    63.267427    36.448127   -11872.701    -308247.6 
     510    1724.5803    168400.04    73.045807    73.045807    36.443575          120    9658.8173    11369.927    -49125.48    621.17143   -2026.1046   -1220.5709    73.045807    63.259525    36.443575   -9365.5785   -308210.75 
     520    1727.4652    168338.31     73.03688    73.036881    36.439121          120    8498.2254    10392.233   -47956.884   -411.99499   -2162.7308   -2562.3899     73.03688    63.251794    36.439121   -9688.8086   -308223.22 
     530    1735.0796    168277.88     73.02814    73.028141    36.434761          120    11137.158    12680.567   -47080.121   -8.6340603   -2637.6152   -1729.5676     73.02814    63.244225    36.434761    -7754.132   -308245.81 
     540    1740.6069    168218.81    73.019594    73.019595    36.430497          120    12376.976     15029.71   -45933.704   -125.47129   -2004.1519   -512.85804    73.019594    63.236824    36.430497   -6175.6728   -308265.48 
     550    1737.2378    168161.13    73.011247    73.011247    36.426332          120    13677.973    13080.791   -46252.735   -344.97759   -1756.1416   -162.90817    73.011247    63.229595    36.426332   -6497.9902   -308269.64 
     560    1735.3543    168104.72    73.003082    73.003083    36.422259          120     15324.42    11613.175   -48397.337    470.22422   -2736.6797   -564.05209    73.003082    63.222524    36.422259   -7153.2472   -308278.26 
     570     1731.328    168049.45     72.99508    72.995081    36.418266          120     15378.02     12574.12   -49330.705   -261.78213   -1290.9386   -56.141888     72.99508    63.215594    36.418266   -7126.1882   -308282.71 
     580    1744.9792    167995.22    72.987228    72.987228    36.414349          120     14727.83    13397.717   -48937.603    789.38427   -941.48065   -2270.2867    72.987228    63.208794    36.414349   -6937.3518   -308322.56 
     590    1710.5258    167941.99    72.979518    72.979519    36.410502          120    15043.218    15719.382    -49193.61    218.00345   -1050.2585    -1496.148    72.979518    63.202117    36.410502   -6143.6698   -308269.77 
     600    1712.0987    167889.75     72.97195    72.971951    36.406727          120     13289.68    16178.394   -47449.612   -35.167966    -417.2363   -474.12624     72.97195    63.195563    36.406727   -5993.8462   -308286.27 
     610    1717.0067    167838.47    72.964521    72.964521     36.40302          120    14307.211    16761.647   -43494.657     -827.987   -2685.4935    1394.2864    72.964521    63.189129     36.40302    -4141.933   -308308.35 
     620    1719.0476    167788.23    72.957239     72.95724    36.399387          120    14441.723    16035.054   -42552.424   -262.46519   -1950.4471    1227.8021    72.957239    63.182823    36.399387   -4025.2157   -308324.08 
     630    1720.9719    167739.01    72.950104    72.950105    36.395827          120     17131.89    16924.563   -40136.933   -333.65783   -712.19064     -229.793    72.950104    63.176644    36.395827   -2026.8268   -308340.02 
     640    1712.0904    167690.91    72.943131    72.943132    36.392348          120    19053.364    19045.208   -38329.959   -35.273674   -2065.8144    105.66835    72.943131    63.170605    36.392348   -77.129077   -308335.82 
     650    1702.8466    167644.05    72.936336    72.936336    36.388958          120    17279.762    16997.643   -39076.494    781.60519   -3183.8927   -1272.6258    72.936336     63.16472    36.388958   -1599.6965   -308330.08 
     660    1715.7418    167598.23    72.929691    72.929692    36.385643          120    14774.267        16653   -42159.659    -589.3346   -1078.3753   -2316.8126    72.929691    63.158966    36.385643    -3577.464   -308367.04 
     670     1717.863    167553.26    72.923167    72.923168    36.382388          120    15928.506    18509.746    -42344.56   -841.80286   -900.75942   -2054.5576    72.923167    63.153316    36.382388   -2635.4362   -308382.84 
     680    1708.8637    167509.12    72.916762    72.916763    36.379193          120    15743.493    18520.557   -43225.975    -1791.745   -450.05985   -504.06345    72.916762    63.147769    36.379193   -2987.3083   -308376.93 
     690    1707.0681    167465.76    72.910471    72.910471    36.376054          120      17421.7    18623.826   -42445.456   -1191.5367   -1144.5478   -1499.3602    72.910471    63.142321    36.376054   -2133.3098    -308385.6 
     700    1707.7941    167423.21    72.904295    72.904296    36.372973          120    18165.921    18842.054   -42014.783   -217.98635   -695.69709   -2169.7918    72.904295    63.136973    36.372973   -1668.9358   -308399.19 
     710    1691.4057    167381.53    72.898245    72.898245    36.369954          120    19764.028    22031.901   -36830.922   -1327.6842   -1604.1779    71.667583    72.898245    63.131732    36.369954    1655.0023    -308377.7 
     720    1702.0163    167340.93     72.89235    72.892351    36.367013          120    21440.475    21921.602   -35765.678    -1932.724   -2314.2974   -67.326025     72.89235    63.126628    36.367013     2532.133   -308408.93 
     730    1691.6018    167301.47     72.88662     72.88662    36.364154          120    20021.664    21693.131   -36575.279   -2284.7795   -2003.0349   -811.62591     72.88662    63.121665    36.364154    1713.1722   -308398.39 
     740    1693.1103    167263.05     72.88104    72.881041    36.361371          120    18394.685     24818.04   -36060.476   -1878.2108    -503.4357   -2700.8652     72.88104    63.116833    36.361371     2384.083   -308409.92 
     750    1697.3052    167225.68    72.875612    72.875613    36.358662          120    19191.685     23813.65   -35910.623   -1641.0666   -963.80172    270.36678    72.875612    63.112132    36.358662    2364.9041   -308426.45 
     760    1689.7229    167189.33    72.870331    72.870332    36.356028          120     19716.59    22894.915   -38260.024    2438.0028   -2468.1327   -1337.1915    72.870331    63.107559    36.356028    1450.4939      -308420 
     770     1696.599    167153.89    72.865182    72.865183    36.353459          120      19878.5    22965.481   -39329.159    1897.9746   -2699.9865   -1932.9862    72.865182    63.103099    36.353459    1171.6073   -308440.58 
     780    1692.7292    167119.29    72.860155    72.860155     36.35095          120    18947.941    22969.346   -39970.057    13.725194   -2695.4346   -1229.9428    72.860155    63.098745     36.35095    649.07673    -308440.9 
     790    1684.6698    167085.47    72.855239     72.85524    36.348498          120    20348.322    23295.989   -39742.762   -231.10609   -1999.1552    -1531.654    72.855239    63.094489    36.348498    1300.5164   -308432.91 
     800    1688.0091    167052.47    72.850443    72.850443    36.346105          120    20413.824    24217.063   -34135.219   -410.88116   -1528.9771   -1558.9013    72.850443    63.090335    36.346105    3498.5558   -308445.09 
     810    1688.6725    167020.45    72.845788    72.845789    36.343783          120    21603.663    24761.805    -32291.68   -477.37701   -142.75226    362.29545    72.845788    63.086304    36.343783    4691.2626   -308452.21 
     820    1691.2935    166989.53    72.841292    72.841293    36.341539          120    22306.486    27832.433    -32230.23    1036.0681    216.67083    528.49871    72.841292     63.08241    36.341539    5969.5632   -308462.11 
     830    1700.4862    166959.74     72.83696     72.83696    36.339378          120    21030.632    24880.524   -36825.476    322.85826   -2160.8039    580.71148     72.83696    63.078658    36.339378    3028.5599   -308484.96 
     840    1688.1467    166930.84    72.832758    72.832758    36.337282          120    20593.264    24845.408   -37008.535    371.81302   -2512.9742    929.74742    72.832758    63.075019    36.337282    2810.0457   -308466.14 
     850    1683.8645    166902.75    72.828672    72.828673    36.335243          120    20916.341    24819.765   -37388.484   -668.61522   -644.02566    165.36982    72.828672    63.071481    36.335243    2782.5405   -308462.17 
     860    1687.8761    166875.45    72.824701    72.824701    36.333262          120    20691.947    22904.707   -37721.784    215.85978    -799.0191   -1311.3912    72.824701    63.068042    36.333262      1958.29   -308473.55 
     870    1682.0735    166848.86    72.820833    72.820833    36.331332          120    22341.995     20871.12   -36002.307   -1997.4775   -1884.0141   -343.47315    72.820833    63.064692    36.331332    2403.6025   -308465.39 
     880    1672.4975    166822.98    72.817067    72.817068    36.329454          120    22077.043    23418.061   -36294.758   -1275.6076   -21.355731   -214.76049    72.817067    63.061431    36.329454     3066.782   -308449.91 
     890    1690.6869    166797.87    72.813415    72.813415    36.327631          120    24849.984    23874.257   -34534.772   -586.80685   -1223.3755   -1665.2765    72.813415    63.058267    36.327631     4729.823   -308486.18 
     900    1693.9851    166773.65    72.809889     72.80989    36.325872          120    24997.556    24148.328   -36184.299   -1531.9114   -886.89847    -1387.744    72.809889    63.055214    36.325872    4320.5287   -308494.34 
     910    1691.1047    166750.29     72.80649    72.806491    36.324176          120    26939.533    23423.309   -34831.382   -1415.9551   -803.02458   -2353.0675     72.80649    63.052271    36.324176    5177.1536   -308489.46 
     920    1685.3509    166727.83     72.80322    72.803221    36.322545          120    23903.104    24313.724   -34769.788   -1908.0332   -1632.4523   -78.091883     72.80322    63.049439    36.322545    4482.3468   -308478.65 
     930     1692.243     166706.2    72.800073    72.800073    36.320974          120    23792.193     26332.24   -34008.204    -642.1846   -2025.2899    415.23008    72.800073    63.046713    36.320974    5372.0764   -308491.65 
     940    1689.1709    166685.45    72.797052    72.797053    36.319467          120    23651.807    28052.855   -32265.661    338.31112   -2054.4637   -2540.8596    72.797052    63.044097    36.319467    6479.6672   -308484.67 
     950    1688.9257    166665.67    72.794172    72.794173    36.318031          120     26439.91    27972.176   -33687.188    97.822929   -733.41266   -3060.4963    72.794172    63.041603    36.318031    6908.2997   -308483.71 
     960    1681.6435    166646.87    72.791436    72.791436    36.316665          120    27847.906    25456.515   -34731.431   -900.32137    1203.2198    -3069.437    72.791436    63.039233    36.316665    6190.9968    -308468.5 
     970    1677.2547    166628.97    72.788829     72.78883    36.315365          120    25613.211    27137.172   -35998.039   -1477.7176    598.65761   -2868.0369    72.788829    63.036976    36.315365    5584.1149   -308457.67 
     980    1697.9729    166611.89    72.786342    72.786342    36.314124          120    23173.254    27600.258   -36114.008     -1620.24   -639.27141   -332.41946    72.786342    63.034822    36.314124    4886.5014   -308495.89 
     990    1687.6811    166595.58    72.783967    72.783968    36.312939          120    24488.018    27703.045    -32867.89   -1304.4899   -232.44559   -1846.6648    72.783967    63.032765    36.312939    6441.0578   -308473.45 
    1000    1679.2624    166580.17    72.781722    72.781723    36.311819          120    25613.679     28778.73   -30014.776   -789.34043    682.90385    942.89953    72.781722    63.030821    36.311819    8125.8778    -308453.8 
Loop time of 431.671 on 1 procs for 1000 steps with 14848 atoms

Performance: 0.200 ns/day, 119.909 hours/ns, 2.317 timesteps/s
100.0% CPU use with 1 MPI tasks x no OpenMP threads

MPI task timing breakdown:
Section |  min time  |  avg time  |  max time  |%varavg| %total
---------------------------------------------------------------
Pair    | 303.36     | 303.36     | 303.36     |   0.0 | 70.28
Bond    | 0.00055122 | 0.00055122 | 0.00055122 |   0.0 |  0.00
Kspace  | 14.552     | 14.552     | 14.552     |   0.0 |  3.37
Neigh   | 104.52     | 104.52     | 104.52     |   0.0 | 24.21
Comm    | 0.6781     | 0.6781     | 0.6781     |   0.0 |  0.16
Output  | 0.013718   | 0.013718   | 0.013718   |   0.0 |  0.00
Modify  | 8.3704     | 8.3704     | 8.3704     |   0.0 |  1.94
Other   |            | 0.178      |            |       |  0.04

Nlocal:    14848 ave 14848 max 14848 min
Histogram: 1 0 0 0 0 0 0 0 0 0
Nghost:    46372 ave 46372 max 46372 min
Histogram: 1 0 0 0 0 0 0 0 0 0
Neighs:    9.87725e+06 ave 9.87725e+06 max 9.87725e+06 min
Histogram: 1 0 0 0 0 0 0 0 0 0

Total # of neighbors = 9877253
Ave neighs/atom = 665.224
Ave special neighs/atom = 0
Neighbor list builds = 310
Dangerous builds = 0
PPPM initialization ...
  using 12-bit tables for long-range coulomb (../kspace.cpp:321)
  G vector (1/distance) = 0.202274
  grid = 36 50 24
  stencil order = 5
  estimated absolute RMS force accuracy = 0.00101843
  estimated relative force accuracy = 7.07259e-05
  using double precision FFTs
  3d grid and FFT values/proc = 65395 43200
Setting up Verlet run ...
  Unit style    : metal
  Current step  : 0
  Time step     : 0.001
Per MPI rank memory allocation (min/avg/max) = 149.2 | 149.2 | 149.2 Mbytes
Step Temp Volume Cella Cellb Cellc CellGamma Pxx Pyy Pzz Pxy Pxz Pyz Lx Ly Lz Press PotEng 
       0    1679.2624    166580.17    72.781722    72.781723    36.311819          120    25619.247    28784.587   -30014.329   -789.06863    683.03117    942.88586    72.781722    63.030821    36.311819     8129.835   -308453.73 
  100000    1709.2128    169273.15    73.171831    73.171832     36.50645          120    17250.544    17794.547   -33767.735    383.47398   -570.17898    1269.8174    73.171831    63.368665     36.50645    425.78514   -308664.02 
Loop time of 42519.4 on 1 procs for 100000 steps with 14848 atoms

Performance: 0.203 ns/day, 118.109 hours/ns, 2.352 timesteps/s
100.0% CPU use with 1 MPI tasks x no OpenMP threads

MPI task timing breakdown:
Section |  min time  |  avg time  |  max time  |%varavg| %total
---------------------------------------------------------------
Pair    | 29480      | 29480      | 29480      |   0.0 | 69.33
Bond    | 0.055838   | 0.055838   | 0.055838   |   0.0 |  0.00
Kspace  | 1472.2     | 1472.2     | 1472.2     |   0.0 |  3.46
Neigh   | 10643      | 10643      | 10643      |   0.0 | 25.03
Comm    | 68.512     | 68.512     | 68.512     |   0.0 |  0.16
Output  | 0.00012898 | 0.00012898 | 0.00012898 |   0.0 |  0.00
Modify  | 837.44     | 837.44     | 837.44     |   0.0 |  1.97
Other   |            | 17.63      |            |       |  0.04

Nlocal:    14848 ave 14848 max 14848 min
Histogram: 1 0 0 0 0 0 0 0 0 0
Nghost:    46021 ave 46021 max 46021 min
Histogram: 1 0 0 0 0 0 0 0 0 0
Neighs:    9.7182e+06 ave 9.7182e+06 max 9.7182e+06 min
Histogram: 1 0 0 0 0 0 0 0 0 0

Total # of neighbors = 9718202
Ave neighs/atom = 654.513
Ave special neighs/atom = 0
Neighbor list builds = 31407
Dangerous builds = 0
 
All done!
Total wall time: 11:55:52
