LAMMPS (16 Mar 2018)
Reading data file ...
  triclinic box = (0 0 0) to (9.208 7.97436 18.376) with tilt (-4.604 0 0)
  1 by 1 by 1 MPI processor grid
  reading atoms ...
  116 atoms
Finding 1-2 1-3 1-4 neighbors ...
  special bond factors lj:   0          0          0         
  special bond factors coul: 0          0          0         
  0 = max # of 1-2 neighbors
  0 = max # of 1-3 neighbors
  0 = max # of 1-4 neighbors
  1 = max # of special neighbors
Replicating atoms ...
  triclinic box = (0 0 0) to (73.664 63.7949 36.752) with tilt (-36.832 0 0)
  1 by 1 by 1 MPI processor grid
  14848 atoms
Finding 1-2 1-3 1-4 neighbors ...
  special bond factors lj:   0          0          0         
  special bond factors coul: 0          0          0         
  0 = max # of 1-2 neighbors
  0 = max # of 1-3 neighbors
  0 = max # of 1-4 neighbors
  1 = max # of special neighbors
  Time spent = 0.00342298 secs
PPPM initialization ...
WARNING: System is not charge neutral, net charge = -0.2048 (../kspace.cpp:302)
  using 12-bit tables for long-range coulomb (../kspace.cpp:321)
  G vector (1/distance) = 0.201681
  grid = 36 50 24
  stencil order = 5
  estimated absolute RMS force accuracy = 0.00105653
  estimated relative force accuracy = 7.33721e-05
  using double precision FFTs
  3d grid and FFT values/proc = 65395 43200
Neighbor list info ...
  update every 1 steps, delay 0 steps, check yes
  max neighbors/atom: 2000, page size: 100000
  master list distance cutoff = 15.3
  ghost atom cutoff = 15.3
  binsize = 7.65, bins = 15 9 5
  3 neighbor lists, perpetual/occasional/extra = 3 0 0
  (1) pair morse, perpetual
      attributes: half, newton on
      pair build: half/bin/newton/tri
      stencil: half/bin/3d/newton/tri
      bin: standard
  (2) pair buck, perpetual, copy from (1)
      attributes: half, newton on
      pair build: copy
      stencil: none
      bin: none
  (3) pair lj/cut/coul/long, perpetual, copy from (1)
      attributes: half, newton on
      pair build: copy
      stencil: none
      bin: none
Setting up Verlet run ...
  Unit style    : metal
  Current step  : 0
  Time step     : 0.001
Per MPI rank memory allocation (min/avg/max) = 145.7 | 145.7 | 145.7 Mbytes
Step Temp Volume Cella Cellb Cellc CellGamma Pxx Pyy Pzz Pxy Pxz Pyz Lx Ly Lz Press PotEng 
       0         1200    172711.88       73.664    73.664001       36.752          120   -197151.52    -197368.2   -268319.02    95.785997   -30.510356    40.813642       73.664    63.794896       36.752   -220946.25   -309191.56 
      10     779.9693     172696.1    73.661757    73.661758    36.750881          120   -185759.56   -185814.04   -231467.65    151.55336   -42.338541   -361.96205    73.661757    63.792954    36.750881   -201013.75   -308392.53 
      20    1101.9601    172651.16    73.655367    73.655368    36.747693          120   -166865.11   -167348.78    -166564.7    208.70816   -101.63411   -702.83916    73.655367     63.78742    36.747693   -166926.19   -309012.78 
      30    1204.8981     172582.3    73.645573    73.645573    36.742806          120   -119413.12   -119859.87   -88052.595   -199.14403    -856.8685   -635.13397    73.645573    63.778938    36.742806   -109108.53   -309204.99 
      40    981.25096    172497.75    73.633545    73.633546    36.736806          120    -71867.15   -72870.515   -14333.697   -1718.4912   -975.33683   -496.53193    73.633545    63.768521    36.736806   -53023.787   -308761.44 
      50    1112.2128    172405.26    73.620382    73.620382    36.730238          120   -51643.285   -52928.543   -9030.4517   -384.37562   -252.07618   -786.49643    73.620382    63.757121    36.730238   -37867.427   -308997.23 
      60    1312.1805     172307.3    73.606435    73.606436     36.72328          120   -49632.973   -49002.875    -58151.63   -1462.3872   -1481.0145   -957.73503    73.606435    63.745044     36.72328   -52262.493   -309367.27 
      70    1418.6877    172202.34    73.591486    73.591487    36.715822          120   -47834.999   -49502.692   -118012.98   -2019.6318   -2161.9007   -691.60758    73.591486    63.732097    36.715822   -71783.557   -309569.12 
      80    1308.0928    172087.92    73.575184    73.575185    36.707688          120   -49550.227   -52297.809   -157296.75   -2043.5734   -1807.9894   -605.10633    73.575184    63.717979    36.707688   -86381.595   -309363.73 
      90    1109.6507     171962.4    73.557292    73.557292    36.698762          120   -48006.127   -47955.858   -165035.87   -1480.6253   -2506.7746   -2312.7183    73.557292    63.702484    36.698762   -86999.284   -308991.26 
     100    1150.1977    171826.26    73.537875    73.537875    36.689074          120   -31957.496   -30838.912   -144517.51    -1338.946   -2210.0485   -2039.8444    73.537875    63.685668    36.689074   -69104.641    -309078.3 
     110    1281.7268    171682.46    73.517354    73.517355    36.678836          120   -14266.333   -14089.194   -109851.96   -2257.8316   -359.70047   -2440.6765    73.517354    63.667897    36.678836   -46069.162    -309338.1 
     120    1303.5787    171534.83    73.496276    73.496276     36.66832          120   -4671.5991   -4739.7262   -68975.016   -1833.8063    245.96975   -1835.8897    73.496276    63.649643     36.66832    -26128.78   -309388.87 
     130    1249.4967    171386.78    73.475125    73.475126    36.657768          120    -3984.539   -2792.0752   -36421.237   -940.25891     -643.953   -1784.9156    73.475125    63.631326    36.657768   -14399.284   -309295.87 
     140    1209.4599    171240.49    73.454214    73.454214    36.647335          120   -7502.4622   -7289.7077   -24630.498   -750.28551   -1170.8292   -2780.6913    73.454214    63.613216    36.647335   -13140.889   -309229.79 
     150     1227.326    171096.57     73.43363    73.433631    36.637065          120   -14712.178   -13999.758   -39748.102   -1217.1786   -1419.6875   -1930.1552     73.43363     63.59539    36.637065   -22820.013   -309275.15 
     160    1286.0163    170954.15    73.413249     73.41325    36.626897          120   -22832.934   -19963.084   -67248.873   -1527.0745   -1440.6082   -2819.0533    73.413249    63.577739    36.626897    -36681.63   -309401.39 
     170    1301.2711    170811.78    73.392863    73.392864    36.616726          120   -24418.978   -24181.327   -94534.307   -1580.0087   -2731.9166   -3250.3726    73.392863    63.560085    36.616726   -47711.538   -309446.63 
     180    1252.1788    170668.42    73.372326    73.372327     36.60648          120   -22396.639   -21916.358   -111255.56   -781.63534   -2093.5033   -3189.1841    73.372326    63.542299     36.60648   -51856.187   -309370.95 
     190    1228.3431       170524    73.351624    73.351625    36.596151          120   -20895.365   -17977.313   -112793.03   -1006.1344    -4408.143   -2450.8467    73.351624    63.524371    36.596151   -50555.237   -309342.06 
     200    1243.7849    170379.23     73.33086     73.33086    36.585792          120   -17343.788   -15586.661   -100435.43    -1615.357   -3939.7732   -2236.4671     73.33086    63.506388    36.585792   -44455.291   -309386.72 
     210    1273.2399    170235.34    73.310211    73.310212     36.57549          120   -13951.408   -13586.563   -83313.371    -712.4993   -2853.7521   -2338.4925    73.310211    63.488506     36.57549   -36950.447   -309458.59 
     220    1268.4527    170093.74    73.289879    73.289879    36.565346          120   -10391.862   -9636.0996   -68240.304   -2034.6235   -2224.9347   -3023.9696    73.289879    63.470897    36.565346   -29422.755    -309463.8 
     230    1252.9646    169955.62    73.270035    73.270036    36.555445          120   -10644.855   -9670.1295   -60280.304   -2172.0853   -2364.3712   -4959.7893    73.270035    63.453713    36.555445   -26865.096   -309448.27 
     240    1248.1286     169821.5    73.250757    73.250758    36.545827          120   -11139.392   -10197.766   -56091.232   -1394.2859   -2244.6305   -5725.1695    73.250757    63.437017    36.545827   -25809.463    -309453.5 
     250    1253.4774    169691.48    73.232058    73.232058    36.536498          120    -13494.02   -12293.712   -62424.275   -798.07648   -1885.4229   -4413.4992    73.232058    63.420823    36.536498   -29404.002   -309477.94 
     260    1277.1222    169565.05    73.213866    73.213867    36.527422          120   -16546.787   -14531.922   -73881.892   -611.34298    -1297.785   -4765.9648    73.213866    63.405069    36.527422   -34986.867   -309539.55 
     270    1275.5164    169441.41    73.196067    73.196068    36.518542          120   -18683.038   -16071.074   -83697.092    -255.3846   -2399.4812   -3992.2983    73.196067    63.389654    36.518542   -39483.735   -309553.34 
     280    1260.1597    169319.87    73.178562    73.178563    36.509808          120   -18920.337   -17680.677   -88876.458    400.39758   -1893.1029   -2026.6863    73.178562    63.374495    36.509808   -41825.824   -309540.91 
     290    1253.4502    169200.06    73.161298    73.161299    36.501195          120   -16721.855   -15369.676   -87308.406   -371.63205   -2609.0034   -2929.9366    73.161298    63.359543    36.501195   -39799.979   -309544.38 
     300    1255.7207    169082.14    73.144298    73.144298    36.492713          120   -12664.892   -13034.476   -80720.549   -1305.5407   -2906.8519   -3631.4593    73.144298    63.344821    36.492713   -35473.306   -309564.98 
     310    1258.2954    168966.53    73.127623    73.127623    36.484394          120   -11115.154   -10722.477   -72912.535   -901.56831    -3237.733   -4256.4552    73.127623     63.33038    36.484394   -31583.388   -309585.01 
     320    1247.0435    168853.56    73.111322    73.111322    36.476261          120    -9421.682   -8162.1949   -65304.306    391.04231   -3165.6685   -3779.5259    73.111322    63.316263    36.476261   -27629.394   -309577.92 
     330    1257.9042    168743.52    73.095436    73.095436    36.468335          120   -8720.3526   -7363.8904   -59350.027    797.47175   -2525.2985   -4390.2713    73.095436    63.302505    36.468335   -25144.757   -309613.28 
     340    1248.3046    168636.45    73.079973    73.079974    36.460621          120   -7835.4471   -7930.4453   -59703.557   -96.348175   -1695.1828   -4586.9812    73.079973    63.289114    36.460621   -25156.483   -309607.71 
     350    1261.5156    168532.07    73.064892    73.064893    36.453097          120    -8152.574   -7543.5202   -63395.468   -400.66636   -518.72786     -3259.59    73.064892    63.276054    36.453097   -26363.854   -309647.47 
     360    1253.4466    168429.91    73.050126    73.050126    36.445729          120   -10340.881   -8395.0391   -69149.286   -454.58636    21.345958   -3759.1693    73.050126    63.263265    36.445729   -29295.069    -309646.8 
     370    1244.6447    168329.36    73.035585    73.035586    36.438475          120   -8485.2298   -8209.2712   -75148.664   -707.21154   -1480.5723   -3448.9607    73.035585    63.250673    36.438475   -30614.388   -309644.03 
     380    1245.3465    168229.98    73.021211    73.021211    36.431303          120   -6982.2886   -6962.8237   -76921.024   -691.47011    -1633.871   -2748.2233    73.021211    63.238224    36.431303   -30288.712   -309659.09 
     390    1243.8881    168131.62    73.006976    73.006977    36.424202          120   -7714.8133   -6981.9152   -74604.064   -713.66121   -354.30343    -3268.018    73.006976    63.225897    36.424202   -29766.931   -309670.29 
     400     1235.599     168034.2    72.992872    72.992873    36.417165          120   -5053.4514   -5447.5234    -67566.46   -614.95338    99.021337   -4037.2777    72.992872    63.213683    36.417165   -26022.478   -309668.13 
     410    1235.9585    167938.01    72.978941    72.978942    36.410215          120    -60.44028     -528.408   -61244.067   -498.79191   -815.02619   -2929.5166    72.978941    63.201618    36.410215   -20610.972   -309681.73 
     420    1250.2959    167843.53    72.965254    72.965255    36.403386          120    1116.9955    1593.1324   -55576.729   -1372.5485   -1231.7891     -2932.76    72.965254    63.189764    36.403386     -17622.2   -309722.43 
     430    1232.9006    167750.99    72.951842    72.951842    36.396694          120    700.12418    805.16225   -51244.671   -85.102207   -2023.9526   -3222.2095    72.951842    63.178149    36.396694   -16579.795   -309701.32 
     440    1246.0864    167660.33    72.938696    72.938697    36.390136          120    876.07122    922.47899   -53197.845   -1850.6911   -1147.5231   -3155.1352    72.938696    63.166765    36.390136   -17133.098   -309740.17 
     450    1238.0925    167571.27     72.92578    72.925781    36.383692          120   -417.61762    2134.2431   -58230.338   -1216.2306    187.22559   -2667.4725     72.92578    63.155579    36.383692   -18837.904   -309737.26 
     460    1241.0947    167483.45    72.913039    72.913039    36.377335          120   -1887.9822     977.5488   -61302.557   -82.254034    247.39351   -2129.3314    72.913039    63.144544    36.377335   -20737.664   -309756.07 
     470    1241.1931     167396.5    72.900418    72.900418    36.371038          120   -1680.7107    1383.6837   -62991.859   -1464.2142     1255.482   -532.37161    72.900418    63.133614    36.371038   -21096.295   -309769.36 
     480    1229.2431    167310.25    72.887896    72.887897    36.364791          120    2238.1668    1824.3335   -60181.773   -688.58168   -190.08136   -1325.6302    72.887896     63.12277    36.364791   -18706.424   -309758.45 
     490    1222.5155    167224.92    72.875502    72.875502    36.358607          120    4442.0577    3666.8798     -57051.5      236.733   -188.63082   -2012.6397    72.875502    63.112037    36.358607   -16314.188   -309757.64 
     500    1234.9564    167140.71    72.863268    72.863268    36.352503          120    5610.7033    5765.7426   -54031.245   -374.77605    162.67471   -3331.5153    72.863268    63.101441    36.352503   -14218.266   -309792.25 
     510    1225.7392    167057.82     72.85122    72.851221    36.346493          120    5728.7448    5348.3951   -51174.666   -802.51489   -949.18983   -2445.0246     72.85122    63.091008    36.346493   -13365.842   -309786.12 
     520    1218.8982    166976.25    72.839361    72.839362    36.340576          120    4584.1801    5764.8023    -52637.24    -959.4926   -32.513249   -1342.1615    72.839361    63.080738    36.340576   -14096.086   -309784.64 
     530    1220.1856    166895.84    72.827667    72.827668    36.334742          120    5194.0693    5986.1452    -52114.39   -586.40844   -1087.7769   -2525.9057    72.827667    63.070611    36.334742   -13644.725   -309797.87 
     540    1232.2475    166816.56    72.816133    72.816134    36.328987          120    6263.7297     5807.303   -52734.018    -1681.647   -401.60192   -886.22057    72.816133    63.060622    36.328987   -13554.328   -309831.39 
     550    1220.2045    166738.36    72.804754    72.804755     36.32331          120    8573.4008    6393.9604   -51462.955    167.88821   -266.10958   -1425.4292    72.804754    63.050767     36.32331   -12165.198   -309818.87 
     560    1240.4384    166661.34    72.793542    72.793542    36.317716          120    9078.4781    9661.8721   -52262.044   -715.04388   -579.38527   -760.95428    72.793542    63.041057    36.317716   -11173.898   -309868.87 
     570    1214.3511    166585.59    72.782511    72.782512    36.312213          120    9364.8569    12732.246   -51151.733    -1624.265   -1314.2089   -1368.8045    72.782511    63.031504    36.312213   -9684.8766   -309829.31 
     580    1220.7809    166511.23     72.77168    72.771681    36.306809          120    10660.169    13008.661   -48737.998   -1759.5546    405.80392   -614.59204     72.77168    63.022125    36.306809   -8356.3891   -309851.82 
     590     1210.044    166438.35    72.761062    72.761062    36.301512          120    11607.708    12902.492   -48985.632   -1776.0833   -824.43708    -1377.471    72.761062    63.012929    36.301512   -8158.4774   -309841.29 
     600    1208.6642    166366.94    72.750655    72.750655    36.296319          120     10781.54    13821.742   -48696.473   -2041.0948   -240.84082   -2297.3225    72.750655    63.003916    36.296319   -8031.0636    -309848.1 
     610    1216.0252    166296.97    72.740454    72.740455     36.29123          120    12161.536    14598.067    -45995.86   -27.606585    556.61159   -1792.0316    72.740454    62.995082     36.29123    -6412.086    -309871.7 
     620    1227.8752    166228.57    72.730479     72.73048    36.286254          120    13099.027    15629.103   -44094.592   -111.10922   -31.592575     -2048.61    72.730479    62.986443    36.286254   -5122.1539   -309904.09 
     630    1215.7167    166161.86    72.720748    72.720749    36.281399          120    12766.103    15682.595    -42367.27    2.8170271   -1302.1402   -1707.5709    72.720748    62.978016    36.281399   -4639.5238   -309890.15 
     640    1212.8679    166096.82    72.711259    72.711259    36.276664          120    12265.739    15749.566   -42313.373   -196.57886   -1966.4146   -1500.8512    72.711259    62.969798    36.276664   -4766.0227   -309893.75 
     650    1209.5709    166033.38    72.702001    72.702001    36.272045          120    12860.924    17465.665   -44319.262   -1055.4673   -1002.3033   -3040.3839    72.702001     62.96178    36.272045   -4664.2243   -309895.55 
     660    1220.1758     165971.5    72.692968    72.692968    36.267538          120     12575.19    17316.308   -42902.048   -1813.1525    24.555106   -2477.7662    72.692968    62.953958    36.267538   -4336.8502   -309925.74 
     670    1197.8822    165911.15    72.684156    72.684156    36.263142          120    12092.641    16630.636   -43344.909    714.66379    318.20765   -897.16422    72.684156    62.946326    36.263142   -4873.8774   -309891.01 
     680    1206.3694    165852.21    72.675548    72.675549    36.258848          120    12751.065    15934.929   -43265.886    2629.8466    263.77235   -1336.1927    72.675548    62.938872    36.258848   -4859.9642   -309915.13 
     690    1207.1184    165794.63    72.667137    72.667137    36.254651          120     15307.88    14749.592   -43834.386    1197.5462   -1543.1473   -468.36536    72.667137    62.931587    36.254651   -4592.3045   -309924.55 
     700    1200.3415    165738.39     72.65892     72.65892    36.250551          120    15540.587    14532.075   -41094.741    977.23297    221.42513   -1717.5326     72.65892    62.924471    36.250551   -3674.0262   -309919.63 
     710    1193.2528    165683.56    72.650906    72.650906    36.246553          120    14668.623    15156.491   -39211.168   -385.90846    751.18926   -2471.9737    72.650906     62.91753    36.246553   -3128.6845   -309913.04 
     720    1204.5672    165630.12    72.643094    72.643095    36.242656          120    15427.964    15891.861   -40821.316   -996.16244   -637.60791   -3320.3213    72.643094    62.910766    36.242656   -3167.1634   -309942.07 
     730    1203.7815    165578.07    72.635484    72.635484    36.238859          120    16726.775    19140.112   -42662.882    213.06172   -549.51749     -4384.08    72.635484    62.904175    36.238859   -2265.3318   -309947.15 
     740    1196.8725    165527.45    72.628081    72.628082    36.235166          120    16273.418    19317.136   -40856.715   -640.15411   -1540.5111   -3317.9062    72.628081    62.897764    36.235166   -1755.3869   -309940.41 
     750    1202.5043    165478.28    72.620889    72.620889    36.231577          120    16774.355    19391.098   -37854.586    -410.9037   -2658.0803   -1243.8341    72.620889    62.891535    36.231577   -563.04415   -309957.53 
     760    1198.4969    165430.65     72.61392    72.613921      36.2281          120     18365.75    19920.058   -36941.797   -251.30776    -1340.089   -1566.4004     72.61392      62.8855      36.2281    448.00333   -309954.92 
     770    1190.7867    165384.64    72.607189    72.607189    36.224742          120    19989.597    21922.456   -36464.579    -207.0874    -748.8628   -1430.4083    72.607189    62.879671    36.224742    1815.8247   -309945.79 
     780    1199.9032    165340.35    72.600706    72.600707    36.221508          120    18856.761    21750.995   -37092.981   -38.083643   -428.55278   -1260.1518    72.600706    62.874057    36.221508     1171.592   -309968.24 
     790    1205.6401    165297.68    72.594461    72.594461    36.218392          120    19051.737    22232.759   -35287.458   -1271.0862   -369.63329    -568.2186    72.594461    62.868648    36.218392    1999.0127   -309984.43 
     800    1194.0056    165256.65    72.588453    72.588454    36.215395          120    19630.271    24274.644   -35530.211   -1141.0622   -1280.8031   -1560.9206    72.588453    62.863445    36.215395    2791.5681   -309967.64 
     810    1202.7254     165217.3    72.582691    72.582691     36.21252          120    18480.315    26034.994     -34370.2   -791.15335   -224.86456   -1571.6452    72.582691    62.858455     36.21252    3381.7031   -309988.73 
     820    1208.1678    165179.63    72.577174    72.577174    36.209767          120    19508.209    24072.418   -34660.248   -536.37186   -1177.6877   -1902.4963    72.577174    62.853677    36.209767    2973.4596   -310003.85 
     830    1194.4938    165143.54    72.571889     72.57189    36.207131          120    19263.449    23966.322   -35296.312   -154.87912   -1953.2957   -2065.4298    72.571889      62.8491    36.207131    2644.4864   -309982.35 
     840    1194.3366    165108.96    72.566823    72.566823    36.204603          120    20451.555    22972.187    -35148.19   -214.71394   -1637.8319   -761.62941    72.566823    62.844713    36.204603    2758.5173   -309986.84 
     850    1187.8401    165075.83    72.561969     72.56197    36.202181          120    20884.579    23448.261   -35087.184    165.62272   -1467.1853   -2202.9994    72.561969    62.840509    36.202181    3081.8853   -309977.56 
     860    1190.9698    165044.14    72.557326    72.557326    36.199865          120    20144.889    25164.681   -33913.985   -812.72225   -1816.8616    -1735.597    72.557326    62.836488    36.199865    3798.5285   -309987.65 
     870    1194.4124    165013.95      72.5529    72.552901    36.197657          120     21391.22    26512.697    -33207.67   -797.27978   -1729.4554   -1418.5102      72.5529    62.832655    36.197657     4898.749    -309997.8 
     880    1194.3487    164985.31    72.548702    72.548703    36.195562          120    21862.351    28361.413   -32749.731    529.27489   -2628.7028   -1402.2139    72.548702     62.82902    36.195562    5824.6778   -310000.46 
     890    1200.4614    164958.27     72.54474    72.544741    36.193586          120     22519.02    26663.965   -33236.016    92.976025   -1375.4127   -1995.2924     72.54474    62.825588    36.193586    5315.6564   -310015.04 
     900    1197.2573    164932.76       72.541       72.541     36.19172          120    22681.856    25700.791   -34161.673    199.53921   -80.514467   -2954.6661       72.541    62.822349     36.19172    4740.3245   -310012.07 
     910    1196.5298    164908.67    72.537468    72.537468    36.189957          120    24634.125    26801.373   -32668.786   -228.23556   -467.28364   -1044.6258    72.537468    62.819291    36.189957    6255.5707   -310012.12 
     920     1203.144     164886.1    72.534159    72.534159    36.188306          120    25425.899    28493.597   -31706.292   -685.99159   -1081.8837   -632.76217    72.534159    62.816425    36.188306    7404.4012   -310027.65 
     930    1185.5463    164865.16    72.531087    72.531088    36.186774          120     23650.29    31650.152   -31175.491    575.86818   -1212.4878   -143.26809    72.531087    62.813765    36.186774    8041.6503   -309995.99 
     940    1192.0201    164845.89    72.528262    72.528262    36.185364          120    25464.984    31387.793   -31446.346    1630.9117   -680.07038   -1536.6871    72.528262    62.811318    36.185364    8468.8105   -310010.04 
     950    1190.5331    164828.26    72.525675    72.525676    36.184074          120    25365.883    29131.231   -34641.306    1630.5984   -526.41514    -2583.094    72.525675    62.809078    36.184074    6618.6027   -310009.54 
     960     1187.911    164811.99     72.52329     72.52329    36.182884          120     21945.56    26695.574   -35158.391   -51.173625   -295.10258   -1345.0602     72.52329    62.807012    36.182884    4494.2476   -310005.42 
     970    1189.7678     164796.8    72.521061    72.521062    36.181772          120    20915.878    27005.345    -36168.28   -1016.1305   -1082.8406   -1787.8133    72.521061    62.805082    36.181772    3917.6477   -310009.94 
     980    1192.3683    164782.59    72.518976    72.518977    36.180732          120    22427.286    29477.963   -32887.941   -1337.6256   -1454.5052   -2324.1395    72.518976    62.803276    36.180732    6339.1025   -310015.35 
     990    1185.6195    164769.58    72.517068    72.517068    36.179779          120    23266.998    31592.924   -31491.235   -1839.5126   -1216.6202   -2465.2852    72.517068    62.801624    36.179779    7789.5622   -310002.17 
    1000    1191.2826    164757.95    72.515362    72.515362    36.178928          120    25136.385    31466.233   -30475.275    -509.3027    51.953001   -2996.0547    72.515362    62.800146    36.178928    8709.1144   -310012.79 
Loop time of 419.56 on 1 procs for 1000 steps with 14848 atoms

Performance: 0.206 ns/day, 116.544 hours/ns, 2.383 timesteps/s
100.0% CPU use with 1 MPI tasks x no OpenMP threads

MPI task timing breakdown:
Section |  min time  |  avg time  |  max time  |%varavg| %total
---------------------------------------------------------------
Pair    | 308.81     | 308.81     | 308.81     |   0.0 | 73.60
Bond    | 0.0006249  | 0.0006249  | 0.0006249  |   0.0 |  0.00
Kspace  | 14.66      | 14.66      | 14.66      |   0.0 |  3.49
Neigh   | 86.781     | 86.781     | 86.781     |   0.0 | 20.68
Comm    | 0.63097    | 0.63097    | 0.63097    |   0.0 |  0.15
Output  | 0.013715   | 0.013715   | 0.013715   |   0.0 |  0.00
Modify  | 8.4733     | 8.4733     | 8.4733     |   0.0 |  2.02
Other   |            | 0.1907     |            |       |  0.05

Nlocal:    14848 ave 14848 max 14848 min
Histogram: 1 0 0 0 0 0 0 0 0 0
Nghost:    46639 ave 46639 max 46639 min
Histogram: 1 0 0 0 0 0 0 0 0 0
Neighs:    9.98807e+06 ave 9.98807e+06 max 9.98807e+06 min
Histogram: 1 0 0 0 0 0 0 0 0 0

Total # of neighbors = 9988069
Ave neighs/atom = 672.688
Ave special neighs/atom = 0
Neighbor list builds = 258
Dangerous builds = 0
PPPM initialization ...
  using 12-bit tables for long-range coulomb (../kspace.cpp:321)
  G vector (1/distance) = 0.202453
  grid = 36 50 24
  stencil order = 5
  estimated absolute RMS force accuracy = 0.00100713
  estimated relative force accuracy = 6.99414e-05
  using double precision FFTs
  3d grid and FFT values/proc = 65395 43200
Setting up Verlet run ...
  Unit style    : metal
  Current step  : 0
  Time step     : 0.001
Per MPI rank memory allocation (min/avg/max) = 150.3 | 150.3 | 150.3 Mbytes
Step Temp Volume Cella Cellb Cellc CellGamma Pxx Pyy Pzz Pxy Pxz Pyz Lx Ly Lz Press PotEng 
       0    1191.2826    164757.95    72.515362    72.515362    36.178928          120     25144.87    31475.045   -30472.585   -509.15148    51.836207   -2996.1326    72.515362    62.800146    36.178928    8715.7764   -310012.68 
  100000    1202.9114    167270.92    72.882183    72.882184    36.361941          120    20146.819    19020.685   -40926.669    101.07174    -2659.042   -612.09391    72.882183    63.117823    36.361941   -586.38821   -310208.44 
Loop time of 40823.5 on 1 procs for 100000 steps with 14848 atoms

Performance: 0.212 ns/day, 113.399 hours/ns, 2.450 timesteps/s
100.0% CPU use with 1 MPI tasks x no OpenMP threads

MPI task timing breakdown:
Section |  min time  |  avg time  |  max time  |%varavg| %total
---------------------------------------------------------------
Pair    | 29861      | 29861      | 29861      |   0.0 | 73.15
Bond    | 0.061063   | 0.061063   | 0.061063   |   0.0 |  0.00
Kspace  | 1463.7     | 1463.7     | 1463.7     |   0.0 |  3.59
Neigh   | 8572.2     | 8572.2     | 8572.2     |   0.0 | 21.00
Comm    | 62.254     | 62.254     | 62.254     |   0.0 |  0.15
Output  | 0.00012994 | 0.00012994 | 0.00012994 |   0.0 |  0.00
Modify  | 845.97     | 845.97     | 845.97     |   0.0 |  2.07
Other   |            | 18.67      |            |       |  0.05

Nlocal:    14848 ave 14848 max 14848 min
Histogram: 1 0 0 0 0 0 0 0 0 0
Nghost:    46322 ave 46322 max 46322 min
Histogram: 1 0 0 0 0 0 0 0 0 0
Neighs:    9.83794e+06 ave 9.83794e+06 max 9.83794e+06 min
Histogram: 1 0 0 0 0 0 0 0 0 0

Total # of neighbors = 9837942
Ave neighs/atom = 662.577
Ave special neighs/atom = 0
Neighbor list builds = 25432
Dangerous builds = 0
 
All done!
Total wall time: 11:27:24
