LAMMPS (16 Mar 2018)
Reading data file ...
  triclinic box = (0 0 0) to (9.208 7.97436 18.376) with tilt (-4.604 0 0)
  1 by 1 by 1 MPI processor grid
  reading atoms ...
  116 atoms
Finding 1-2 1-3 1-4 neighbors ...
  special bond factors lj:   0          0          0         
  special bond factors coul: 0          0          0         
  0 = max # of 1-2 neighbors
  0 = max # of 1-3 neighbors
  0 = max # of 1-4 neighbors
  1 = max # of special neighbors
Replicating atoms ...
  triclinic box = (0 0 0) to (73.664 63.7949 36.752) with tilt (-36.832 0 0)
  1 by 1 by 1 MPI processor grid
  14848 atoms
Finding 1-2 1-3 1-4 neighbors ...
  special bond factors lj:   0          0          0         
  special bond factors coul: 0          0          0         
  0 = max # of 1-2 neighbors
  0 = max # of 1-3 neighbors
  0 = max # of 1-4 neighbors
  1 = max # of special neighbors
  Time spent = 0.0048151 secs
PPPM initialization ...
WARNING: System is not charge neutral, net charge = -0.2048 (../kspace.cpp:302)
  using 12-bit tables for long-range coulomb (../kspace.cpp:321)
  G vector (1/distance) = 0.201681
  grid = 36 50 24
  stencil order = 5
  estimated absolute RMS force accuracy = 0.00105653
  estimated relative force accuracy = 7.33721e-05
  using double precision FFTs
  3d grid and FFT values/proc = 65395 43200
Neighbor list info ...
  update every 1 steps, delay 0 steps, check yes
  max neighbors/atom: 2000, page size: 100000
  master list distance cutoff = 15.3
  ghost atom cutoff = 15.3
  binsize = 7.65, bins = 15 9 5
  3 neighbor lists, perpetual/occasional/extra = 3 0 0
  (1) pair morse, perpetual
      attributes: half, newton on
      pair build: half/bin/newton/tri
      stencil: half/bin/3d/newton/tri
      bin: standard
  (2) pair buck, perpetual, copy from (1)
      attributes: half, newton on
      pair build: copy
      stencil: none
      bin: none
  (3) pair lj/cut/coul/long, perpetual, copy from (1)
      attributes: half, newton on
      pair build: copy
      stencil: none
      bin: none
Setting up Verlet run ...
  Unit style    : metal
  Current step  : 0
  Time step     : 0.001
Per MPI rank memory allocation (min/avg/max) = 145.7 | 145.7 | 145.7 Mbytes
Step Temp Volume Cella Cellb Cellc CellGamma Pxx Pyy Pzz Pxy Pxz Pyz Lx Ly Lz Press PotEng 
       0          200    172711.88       73.664    73.664001       36.752          120   -209133.79   -209163.49   -280147.32    17.047351   -5.0886883    6.8009069       73.664    63.794896       36.752   -232814.87   -309191.56 
      10     312.4648     172610.6    73.649598    73.649599    36.744815          120    -211852.7   -211938.87   -259171.66    99.580072   -15.946832   -149.36632    73.649598    63.782424    36.744815   -227654.41      -309447 
      20     571.1852    172313.07    73.607256    73.607257     36.72369          120   -210274.11   -209900.19   -200144.12    24.863506   -231.66551   -321.08473    73.607256    63.745755     36.72369   -206772.81   -310002.07 
      30    559.86474    171846.51    73.540763    73.540764    36.690515          120   -186138.63   -185653.43   -120089.58   -210.85196   -765.48358   -400.41856    73.540763     63.68817    36.690515   -163960.55   -310059.91 
      40    339.28317    171271.02    73.458579    73.458579    36.649512          120    -144258.8   -144277.28   -40743.453   -513.09355   -1129.3148   -446.46572    73.458579    63.616996    36.649512   -109759.84   -309701.06 
      50    420.06373       170668    73.372265    73.372266    36.606449          120   -101788.02   -102170.16    -5302.605   -630.52639   -1196.3587   -601.16049    73.372265    63.542246    36.606449   -69753.597   -309895.78 
      60    731.66254     170103.1    73.291224    73.291224    36.566017          120   -72701.344   -72598.528   -39975.752   -588.58659   -2104.3819   -452.83204    73.291224    63.472062    36.566017   -61758.541   -310536.42 
      70    919.90406    169599.71    73.218855    73.218855    36.529911          120   -52488.257   -52118.554   -102368.34   -1450.2992   -2432.7754   -378.72507    73.218855    63.409389    36.529911   -68991.717   -310973.42 
      80    775.25664    169151.24     73.15426     73.15426    36.497683          120   -39696.342   -40184.492   -147754.94   -1728.0573   -2981.6081    135.74805     73.15426    63.353448    36.497683   -75878.593   -310775.94 
      90    499.93573    168741.68    73.095171    73.095171    36.468203          120   -33150.846   -33762.007   -162903.86   -1926.6194   -3508.9863   -34.575843    73.095171    63.302275    36.468203   -76605.569   -310308.15 
     100    520.74996    168358.23    73.039761    73.039762    36.440559          120   -18464.171   -18477.573   -143132.51   -1705.6276   -3273.9157    -562.7141    73.039761     63.25429    36.440559   -60024.753   -310394.52 
     110    694.77021    168000.64    72.988012    72.988013     36.41474          120    621.94969    565.37276   -100205.93   -1819.0002   -2596.8182   -648.58906    72.988012    63.209473     36.41474   -33006.203   -310783.59 
     120    691.17912     167676.9      72.9411      72.9411    36.391335          120    11309.542     11391.35    -48719.77   -1773.5622    -2178.455    -1214.859      72.9411    63.168846    36.391335   -8672.9593    -310838.5 
     130    583.95843    167393.72    72.900015    72.900015    36.370837          120    9617.5246    10581.495   -8195.7825   -1792.4227   -2143.9215   -1156.2598    72.900015    63.133265    36.370837    4001.0791   -310685.32 
     140    538.96283    167150.65    72.864712    72.864713    36.353224          120    4637.6811    4647.6657    4084.7015   -1317.2192   -2011.7295   -926.70144    72.864712    63.102693    36.353224    4456.6828   -310640.96 
     150    595.99661    166939.71    72.834048    72.834049    36.337926          120    -2921.099   -1875.4803   -19888.878   -1876.1122   -1516.0544     -493.241    72.834048    63.076137    36.337926   -8228.4857   -310794.48 
     160    655.54024    166745.76    72.805831    72.805831    36.323847          120    -13507.83   -11689.979   -57291.229   -1599.5178    -1636.907   -414.56629    72.805831    63.051699    36.323847   -27496.346    -310964.4 
     170     629.6322    166551.77    72.777586    72.777586    36.309756          120   -18384.407   -16204.356    -87503.17   -632.60159   -2248.4861   -684.05269    72.777586    63.027239    36.309756   -40697.311    -310975.8 
     180    548.51886     166347.3    72.747792    72.747792    36.294891          120   -14783.932   -12423.215    -103881.9   -297.15386   -2373.0425   -809.01144    72.747792    63.001436    36.294891   -43696.349   -310875.73 
     190    527.92313    166130.95    72.716239     72.71624    36.279149          120   -9526.9617   -7343.2146   -100674.15     259.0192   -2053.7815   -561.25242    72.716239    62.974111    36.279149   -39181.441   -310884.74 
     200    567.32663     165907.7    72.683653    72.683653    36.262891          120   -4968.4579   -3568.2495   -80457.299   -330.44216   -2119.8769    -440.3518    72.683653     62.94589    36.262891   -29664.669   -311010.36 
     210    569.89631    165686.01    72.651264    72.651264    36.246732          120   -647.41392    1109.1897   -56005.665   -995.83231   -2198.4677    -387.9529    72.651264    62.917841    36.246732    -18514.63   -311067.83 
     220    537.62577    165474.67    72.620361    72.620361    36.231314          120    3199.5784    4702.5716   -36356.157   -642.79029   -1826.6507   -1298.4047    72.620361    62.891078    36.231314    -9484.669   -311054.59 
     230    516.65107    165279.56    72.591807    72.591808    36.217068          120    4239.4017    4626.9039   -29726.491   -445.36263   -1243.4746   -1874.3054    72.591807     62.86635    36.217068   -6953.3953   -311058.84 
     240    519.81504    165101.09     72.56567    72.565671    36.204028          120    2475.8317    2509.5672    -35591.86   -287.16686   -1841.9078   -2214.1875     72.56567    62.843714    36.204028   -10202.154   -311108.58 
     250    534.73426    164935.14    72.541349     72.54135    36.191894          120    301.61231   -135.53851    -50256.06    24.982401   -1705.5096   -2360.5139    72.541349    62.822652    36.191894   -16696.662   -311183.66 
     260    525.42192    164775.69    72.517966    72.517966    36.180227          120    41.857654   -1576.7618   -65246.702   -147.50546   -1649.2089   -2393.5978    72.517966    62.802401    36.180227   -22260.535   -311213.28 
     270    496.35214    164617.98    72.494821    72.494822     36.16868          120    784.40485   -952.17525   -73555.643   -751.47423    -1370.991   -1566.9515    72.494821    62.782357     36.16868   -24574.471   -311203.87 
     280    479.07779    164460.14    72.471644    72.471644    36.157117          120     1889.239    924.87287   -71652.854   -608.89279   -1056.2592   -636.86598    72.471644    62.762285    36.157117   -22946.247   -311213.36 
     290    482.03493    164303.46    72.448622    72.448622    36.145631          120    4907.3521     4891.174   -61483.748   -546.63635   -1386.0395   -516.39232    72.448622    62.742348    36.145631   -17228.407    -311260.9 
     300    482.66373    164151.88    72.426337    72.426337    36.134512          120    8695.9627    8870.7447    -47149.32   -127.29189   -1618.3527   -368.07677    72.426337    62.723048    36.134512   -9860.8709   -311303.98 
     310    472.64025    164010.12    72.405481    72.405482    36.124107          120     11125.47    10990.549   -33072.418    259.11157   -1578.7635   -639.55828    72.405481    62.704987    36.124107   -3652.1329   -311324.71 
     320     456.4724    163881.33    72.386524    72.386525    36.114649          120    10521.585      11188.9   -25991.169   -74.939586   -1916.5119   -1514.7121    72.386524    62.688569    36.114649   -1426.8945   -311332.07 
     330    453.86506    163765.53     72.36947    72.369471    36.106141          120    8785.0437    10170.202   -27540.962   -259.86789   -1746.1648   -1616.3588     72.36947      62.6738    36.106141   -2861.9054   -311364.58 
     340    451.36563    163660.09    72.353936    72.353936    36.098391          120    7798.0298     9544.606   -37157.541   -228.88362   -1309.2663   -1554.1856    72.353936    62.660347    36.098391   -6604.9685   -311396.43 
     350    443.44678       163561    72.339329     72.33933    36.091103          120    7550.7433    8973.6633   -48906.515    -542.0223   -753.29831   -1561.4039    72.339329    62.647698    36.091103   -10794.036   -311418.25 
     360    429.65246    163464.48    72.325097    72.325097    36.084003          120    7852.9413    9809.6638   -55482.539   -863.74296   -583.46219   -2662.9631    72.325097    62.635372    36.084003   -12606.645   -311427.23 
     370    415.81359    163368.78    72.310981    72.310982     36.07696          120    8497.3265    12237.145   -55568.182   -913.87378   -1953.2446   -2874.3182    72.310981    62.623147     36.07696   -11611.237   -311434.97 
     380    412.75338    163274.38    72.297049     72.29705    36.070009          120    10990.732    14240.752   -50104.256    -977.9133   -2178.3885   -2155.0808    72.297049    62.611082    36.070009    -8290.924   -311461.57 
     390     411.5545    163183.38    72.283616    72.283616    36.063307          120    13644.382    15739.069   -40603.166   -1031.2212    -2677.033   -2059.7908    72.283616    62.599448    36.063307   -3739.9051   -311492.14 
     400    399.38042    163098.57    72.271092    72.271092    36.057059          120    15154.001    16663.145   -30948.891   -207.73688   -3001.7519   -1607.5404    72.271092    62.588602    36.057059     289.4183   -311500.04 
     410    389.82386    163022.13    72.259799      72.2598    36.051424          120     16219.08    17765.964   -26296.156   -153.06769    -2199.837   -1903.0209    72.259799    62.578822    36.051424    2562.9625   -311511.38 
     420    389.72804    162954.71    72.249836    72.249837    36.046454          120     15873.57    17903.526   -27481.887   -99.086699   -1947.9776   -1164.4278    72.249836    62.570194    36.046454    2098.4032   -311541.15 
     430    381.38236    162895.02    72.241014    72.241015    36.042052          120    15113.978     16758.89   -32566.515    21.593995   -1711.2337   -367.46457    72.241014    62.562554    36.042052   -231.21558   -311554.06 
     440    373.41179    162840.59    72.232967    72.232968    36.038038          120    14846.031    15530.256   -39256.664   -59.769511   -2273.7811    -656.0587    72.232967    62.555585    36.038038   -2960.1253   -311567.54 
     450    364.54738    162788.92    72.225326    72.225327    36.034225          120    15332.528    14960.399   -43557.659    26.025416   -1898.7822   -613.42759    72.225326    62.548968    36.034225   -4421.5773   -311577.24 
     460    360.81366    162738.74    72.217903    72.217904    36.030522          120    17542.453    16489.319   -43344.485    402.43272   -1834.7042   -686.83407    72.217903    62.542539    36.030522   -3104.2379   -311596.38 
     470    355.23756    162690.68    72.210794    72.210795    36.026975          120    19667.066    18338.575   -39577.104    483.15795   -2910.2246   -267.97399    72.210794    62.536383    36.026975   -523.82101   -311611.39 
     480    349.32311    162646.38    72.204239     72.20424    36.023705          120    20192.465    20182.932   -33232.861    845.40556   -2733.4297   0.49047479    72.204239    62.530706    36.023705    2380.8451   -311625.49 
     490    344.07899    162607.49    72.198484    72.198485    36.020834          120    20150.349    21610.997   -29000.409    1132.4913   -2262.4714     127.7856    72.198484    62.525722    36.020834    4253.6458   -311639.82 
     500    338.47877    162574.95    72.193668    72.193668    36.018431          120    20257.911    22644.567   -26894.598    1289.5539   -2036.0505    985.67991    72.193668    62.521551    36.018431    5335.9599   -311652.54 
     510    334.35101    162548.85    72.189803    72.189804    36.016503          120    19153.692    21791.984   -28528.145    1205.8749   -2177.5267    899.01346    72.189803    62.518204    36.016503    4139.1771   -311667.88 
     520    326.37248    162527.86    72.186696    72.186697    36.014952          120    18566.994    20079.304   -31503.606    763.51982   -2154.6699    681.05975    72.186696    62.515513    36.014952    2380.8973   -311674.63 
     530    322.56699    162510.28    72.184094    72.184094    36.013654          120    18362.168    19846.784   -35573.371    469.62794   -2173.1005    405.04305    72.184094     62.51326    36.013654    878.52725   -311689.06 
     540    317.15626    162494.71    72.181789    72.181789    36.012504          120    17719.703    20410.454   -38375.995    647.14346   -2454.8792     195.7719    72.181789    62.511263    36.012504   -81.945837   -311699.84 
     550    312.15688    162480.35    72.179663    72.179663    36.011443          120    17661.943    21488.861   -37946.128    899.42007   -2382.2114   -53.169367    72.179663    62.509422    36.011443    401.55873   -311710.46 
     560    308.90541    162467.41    72.177745    72.177746    36.010487          120    18534.709    22017.451   -35833.688    432.26103   -2506.7944    457.36161    72.177745    62.507762    36.010487    1572.8241   -311724.44 
     570    303.03946    162456.62    72.176147    72.176148    36.009689          120    19699.701    22278.922   -32292.447    730.63151   -2976.3949    605.18675    72.176147    62.506378    36.009689    3228.7257   -311732.98 
     580    297.26622    162448.99    72.175018    72.175019    36.009126          120    20651.773    22419.818   -29275.936    1342.7496   -2818.8542    255.45403    72.175018      62.5054    36.009126    4598.5519   -311740.41 
     590    295.50662    162445.29     72.17447    72.174471    36.008853          120    20641.105    22332.094   -27335.483    1304.4841   -3030.1491    124.93271     72.17447    62.504925    36.008853    5212.5719   -311755.28 
     600    288.29901    162445.66    72.174525    72.174526     36.00888          120    20698.976    21864.864   -28270.837    1103.5229   -2549.5208   -58.582516    72.174525    62.504973     36.00888    4764.3344   -311759.31 
     610     288.1229     162449.5    72.175093    72.175094    36.009164          120    20356.896    20988.787   -30719.892    744.18807   -2149.6409   -228.49812    72.175093    62.505465    36.009164    3541.9301   -311776.45 
     620    284.75356    162455.71    72.176013    72.176014    36.009623          120    19617.003    20827.109   -33629.101    542.90744   -2553.0144   -503.09536    72.176013    62.506262    36.009623    2271.6705   -311787.09 
     630    277.21096    162463.24    72.177128    72.177128    36.010179          120    19543.288    20454.578   -35849.081    541.42576   -2224.3653   -774.91849    72.177128    62.507227    36.010179    1382.9283   -311789.77 
     640    273.21882    162471.36     72.17833    72.178331    36.010779          120    19647.563    20558.671   -35804.405    1016.4194   -2316.6018   -278.14538     72.17833    62.508268    36.010779    1467.2765   -311797.79 
     650    269.36519    162480.07    72.179621    72.179622    36.011423          120     20261.61    21026.834   -34440.596    1209.7255   -2774.1846   -455.20028    72.179621    62.509386    36.011423    2282.6163    -311805.1 
     660     268.9558    162489.99    72.181089    72.181089    36.012155          120    21084.724     21841.58   -31580.457    926.51115   -2901.7735   -753.99491    72.181089    62.510657    36.012155    3781.9488   -311819.37 
     670    264.58112     162502.1    72.182882    72.182882    36.013049          120    21879.386    22385.407   -28954.358    786.09293   -2481.9218   -740.52854    72.182882     62.51221    36.013049    5103.4782   -311825.23 
     680    259.83634    162517.15    72.185111    72.185112    36.014162          120    21107.764    22195.713   -28925.391    305.20854   -2495.9303   -506.48855    72.185111    62.514141    36.014162    4792.6952   -311830.55 
     690    257.50659    162534.78    72.187721    72.187722    36.015464          120    19671.847    21549.943   -30978.372    44.097846   -2754.5311    42.815423    72.187721    62.516401    36.015464    3414.4727   -311840.69 
     700    254.34201     162553.9    72.190552    72.190552    36.016876          120     19118.26    20626.275   -32835.441    202.94492   -2842.4387    151.09157    72.190552    62.518852    36.016876    2303.0312   -311848.11 
     710    253.47069    162573.58    72.193464    72.193465    36.018329          120    18243.035    19984.483    -34013.15    87.069731   -2504.3006    450.44056    72.193464    62.521375    36.018329    1404.7894   -311858.95 
     720    247.75715    162593.16    72.196363    72.196363    36.019775          120    18411.061     20640.07   -35253.757    335.65621   -1722.3551   -102.99759    72.196363    62.523885    36.019775    1265.7912    -311861.2 
     730    246.05098    162612.56    72.199235    72.199235    36.021208          120    19166.817     21237.76   -34550.426    599.57771   -1520.5333   -218.72748    72.199235    62.526372    36.021208    1951.3836   -311870.21 
     740    243.36787    162632.28    72.202153    72.202153    36.022664          120    19873.366    21299.639   -32932.138     671.6552   -1919.6081   -394.75555    72.202153    62.528899    36.022664    2746.9553   -311876.79 
     750     239.7862    162652.85    72.205197    72.205197    36.024183          120    19861.034    20988.941    -31795.02    829.87138   -1870.8822   -879.52526    72.205197    62.531535    36.024183    3018.3183   -311881.08 
     760    237.18257    162674.47    72.208395    72.208396    36.025778          120    19681.159    20691.905   -31355.966    483.67548   -1533.9804   -539.37452    72.208395    62.534305    36.025778    3005.6992   -311886.61 
     770    234.38507    162697.06    72.211738    72.211738    36.027446          120    19484.294    20746.942   -32046.873    625.22137   -1539.9005    -851.5483    72.211738      62.5372    36.027446    2728.1209   -311892.28 
     780    233.73742    162720.37    72.215186    72.215186    36.029166          120    18832.006     20210.87   -33063.402    611.06623   -1600.8139   -730.67856    72.215186    62.540186    36.029166    1993.1579   -311901.75 
     790    229.75477    162743.82    72.218655    72.218656    36.030897          120     17901.49    19624.559   -34156.491    481.04643   -1899.6847   -130.94632    72.218655    62.543191    36.030897     1123.186   -311904.47 
     800    227.49179    162766.85    72.222061    72.222062    36.032596          120    18202.829    19724.918   -34965.351    1116.4754   -2194.8271   -165.49622    72.222061     62.54614    36.032596    987.46518   -311910.16 
     810    225.77096    162789.29     72.22538    72.225381    36.034252          120    18283.777    19601.665   -36154.642    1343.5077   -2343.6657   -70.678461     72.22538    62.549015    36.034252    576.93348   -311916.35 
     820     221.1392    162810.94    72.228582    72.228582     36.03585          120    18348.097    19129.853    -35871.21    1225.7728   -2214.9825    275.17271    72.228582    62.551787     36.03585    535.58013   -311916.87 
     830     221.0752    162831.78    72.231664    72.231665    36.037388          120    18179.706    18799.602   -34885.568    1351.0846   -2817.7696    271.40963    72.231664    62.554457    36.037388    697.91352    -311925.4 
     840    218.24065    162852.01    72.234655    72.234656     36.03888          120    18196.678     18694.18   -33955.238    1254.6607   -2701.7947   -282.68087    72.234655    62.557047     36.03888    978.54007    -311928.5 
     850    217.59998    162871.86     72.23759    72.237591    36.040344          120    18216.805    18391.157   -33611.147    728.96453   -1640.4703   -123.56556     72.23759    62.559589    36.040344    998.93865   -311935.65 
     860    215.10168    162891.33    72.240468    72.240468     36.04178          120    17499.671    18090.367   -34710.117    927.16349   -1277.4381    -11.46644    72.240468    62.562081     36.04178    293.30684   -311938.77 
     870    213.28345    162910.01    72.243229    72.243229    36.043157          120    17156.315    17912.577   -34780.358    771.55554    -1079.317    381.20608    72.243229    62.564472    36.043157    96.177999    -311942.3 
     880    212.20261    162927.73    72.245849    72.245849    36.044465          120    17038.439    18429.014   -35743.695    908.40738   -1373.6237    399.32217    72.245849    62.566741    36.044465   -92.081041   -311948.11 
     890    210.45839    162944.45     72.24832     72.24832    36.045697          120    16807.339    18715.817   -36181.692    1258.0161   -1686.1294    499.57639     72.24832    62.568881    36.045697   -219.51225   -311951.92 
     900     208.2557    162960.09    72.250632    72.250633    36.046851          120    16258.969    18839.203   -36707.131    1092.4683   -2083.9667     307.8878    72.250632    62.570883    36.046851   -536.31956   -311954.57 
     910    207.19273    162974.53    72.252765    72.252766    36.047915          120    16432.916    18874.028   -36988.256    1608.3359   -2653.5469   -258.39286    72.252765    62.572731    36.047915   -560.43719    -311959.4 
     920    205.45938    162987.75    72.254719     72.25472     36.04889          120    16877.841    17646.428   -36879.099    2289.2316   -2768.7905   -380.58358    72.254719    62.574423     36.04889   -784.94363   -311962.29 
     930    203.34738    162999.73     72.25649     72.25649    36.049773          120    16911.931    17717.239   -36254.566    2221.2533   -2772.3959   -482.59576     72.25649    62.575956    36.049773   -541.79894   -311964.23 
     940    202.92003    163010.69    72.258108    72.258109    36.050581          120    16627.056    18064.531   -35658.375    1934.2988   -2897.4741   -672.21742    72.258108    62.577358    36.050581   -322.26276   -311969.37 
     950    201.28042     163020.8    72.259602    72.259603    36.051326          120    16282.506    17340.874   -35434.955    1413.4078   -3071.9488    -1019.691    72.259602    62.578652    36.051326   -603.85842   -311971.73 
     960    199.71594    163029.94    72.260953    72.260954       36.052          120    16007.903    17576.428   -36141.028    1191.2442   -2626.7876   -545.70319    72.260953    62.579822       36.052   -852.23226   -311973.37 
     970    197.79307    163037.95    72.262136    72.262136     36.05259          120    16225.421    16483.515   -36712.588    1301.1411   -2828.8486    316.32392    72.262136    62.580846     36.05259   -1334.5508   -311974.33 
     980    196.02235    163044.56    72.263113    72.263114    36.053078          120    16462.459    16089.145   -36861.314    1490.4555   -2977.5029     317.7532    72.263113    62.581692    36.053078   -1436.5698   -311975.36 
     990    195.19037    163049.78    72.263884    72.263885    36.053463          120    16334.151    16800.293   -36718.764    1818.5618   -2699.0562    257.53122    72.263884     62.58236    36.053463   -1194.7729   -311978.12 
    1000     195.6457    163053.81     72.26448     72.26448     36.05376          120     16241.41    16989.431   -36825.374    1848.2664   -2710.9618   -34.125013     72.26448    62.582876     36.05376   -1198.1777   -311982.36 
Loop time of 390.528 on 1 procs for 1000 steps with 14848 atoms

Performance: 0.221 ns/day, 108.480 hours/ns, 2.561 timesteps/s
100.0% CPU use with 1 MPI tasks x no OpenMP threads

MPI task timing breakdown:
Section |  min time  |  avg time  |  max time  |%varavg| %total
---------------------------------------------------------------
Pair    | 314.65     | 314.65     | 314.65     |   0.0 | 80.57
Bond    | 0.00055575 | 0.00055575 | 0.00055575 |   0.0 |  0.00
Kspace  | 14.568     | 14.568     | 14.568     |   0.0 |  3.73
Neigh   | 52.016     | 52.016     | 52.016     |   0.0 | 13.32
Comm    | 0.52321    | 0.52321    | 0.52321    |   0.0 |  0.13
Output  | 0.013728   | 0.013728   | 0.013728   |   0.0 |  0.00
Modify  | 8.5827     | 8.5827     | 8.5827     |   0.0 |  2.20
Other   |            | 0.1771     |            |       |  0.05

Nlocal:    14848 ave 14848 max 14848 min
Histogram: 1 0 0 0 0 0 0 0 0 0
Nghost:    46857 ave 46857 max 46857 min
Histogram: 1 0 0 0 0 0 0 0 0 0
Neighs:    1.00926e+07 ave 1.00926e+07 max 1.00926e+07 min
Histogram: 1 0 0 0 0 0 0 0 0 0

Total # of neighbors = 10092573
Ave neighs/atom = 679.726
Ave special neighs/atom = 0
Neighbor list builds = 155
Dangerous builds = 0
PPPM initialization ...
  using 12-bit tables for long-range coulomb (../kspace.cpp:321)
  G vector (1/distance) = 0.202622
  grid = 36 50 24
  stencil order = 5
  estimated absolute RMS force accuracy = 0.000996578
  estimated relative force accuracy = 6.92085e-05
  using double precision FFTs
  3d grid and FFT values/proc = 65395 43200
Setting up Verlet run ...
  Unit style    : metal
  Current step  : 0
  Time step     : 0.001
Per MPI rank memory allocation (min/avg/max) = 152.6 | 152.6 | 152.6 Mbytes
Step Temp Volume Cella Cellb Cellc CellGamma Pxx Pyy Pzz Pxy Pxz Pyz Lx Ly Lz Press PotEng 
       0     195.6457    163053.81     72.26448     72.26448     36.05376          120    16253.648     17002.19   -36818.161     1848.674    -2710.758   -34.100365     72.26448    62.582876     36.05376   -1187.4408   -311982.18 
  100000    200.13078    163365.22    72.310456    72.310456    36.076698          120    19444.905     18925.78   -35550.181    34.607733   -4352.3643    1089.5237    72.310456    62.622692    36.076698    940.16789   -312054.76 
Loop time of 36434.5 on 1 procs for 100000 steps with 14848 atoms

Performance: 0.237 ns/day, 101.207 hours/ns, 2.745 timesteps/s
100.0% CPU use with 1 MPI tasks x no OpenMP threads

MPI task timing breakdown:
Section |  min time  |  avg time  |  max time  |%varavg| %total
---------------------------------------------------------------
Pair    | 30543      | 30543      | 30543      |   0.0 | 83.83
Bond    | 0.056249   | 0.056249   | 0.056249   |   0.0 |  0.00
Kspace  | 1448       | 1448       | 1448       |   0.0 |  3.97
Neigh   | 3519.5     | 3519.5     | 3519.5     |   0.0 |  9.66
Comm    | 47.724     | 47.724     | 47.724     |   0.0 |  0.13
Output  | 0.00012898 | 0.00012898 | 0.00012898 |   0.0 |  0.00
Modify  | 858.57     | 858.57     | 858.57     |   0.0 |  2.36
Other   |            | 17.52      |            |       |  0.05

Nlocal:    14848 ave 14848 max 14848 min
Histogram: 1 0 0 0 0 0 0 0 0 0
Nghost:    46801 ave 46801 max 46801 min
Histogram: 1 0 0 0 0 0 0 0 0 0
Neighs:    1.00732e+07 ave 1.00732e+07 max 1.00732e+07 min
Histogram: 1 0 0 0 0 0 0 0 0 0

Total # of neighbors = 10073188
Ave neighs/atom = 678.421
Ave special neighs/atom = 0
Neighbor list builds = 10493
Dangerous builds = 0
 
All done!
Total wall time: 10:13:46
