LAMMPS (16 Mar 2018)
Reading data file ...
  triclinic box = (0 0 0) to (9.208 7.97436 18.376) with tilt (-4.604 0 0)
  1 by 1 by 1 MPI processor grid
  reading atoms ...
  116 atoms
Finding 1-2 1-3 1-4 neighbors ...
  special bond factors lj:   0          0          0         
  special bond factors coul: 0          0          0         
  0 = max # of 1-2 neighbors
  0 = max # of 1-3 neighbors
  0 = max # of 1-4 neighbors
  1 = max # of special neighbors
Replicating atoms ...
  triclinic box = (0 0 0) to (73.664 63.7949 36.752) with tilt (-36.832 0 0)
  1 by 1 by 1 MPI processor grid
  14848 atoms
Finding 1-2 1-3 1-4 neighbors ...
  special bond factors lj:   0          0          0         
  special bond factors coul: 0          0          0         
  0 = max # of 1-2 neighbors
  0 = max # of 1-3 neighbors
  0 = max # of 1-4 neighbors
  1 = max # of special neighbors
  Time spent = 0.00708604 secs
PPPM initialization ...
WARNING: System is not charge neutral, net charge = -0.2048 (../kspace.cpp:302)
  using 12-bit tables for long-range coulomb (../kspace.cpp:321)
  G vector (1/distance) = 0.201681
  grid = 36 50 24
  stencil order = 5
  estimated absolute RMS force accuracy = 0.00105653
  estimated relative force accuracy = 7.33721e-05
  using double precision FFTs
  3d grid and FFT values/proc = 65395 43200
Neighbor list info ...
  update every 1 steps, delay 0 steps, check yes
  max neighbors/atom: 2000, page size: 100000
  master list distance cutoff = 15.3
  ghost atom cutoff = 15.3
  binsize = 7.65, bins = 15 9 5
  3 neighbor lists, perpetual/occasional/extra = 3 0 0
  (1) pair morse, perpetual
      attributes: half, newton on
      pair build: half/bin/newton/tri
      stencil: half/bin/3d/newton/tri
      bin: standard
  (2) pair buck, perpetual, copy from (1)
      attributes: half, newton on
      pair build: copy
      stencil: none
      bin: none
  (3) pair lj/cut/coul/long, perpetual, copy from (1)
      attributes: half, newton on
      pair build: copy
      stencil: none
      bin: none
Setting up Verlet run ...
  Unit style    : metal
  Current step  : 0
  Time step     : 0.001
Per MPI rank memory allocation (min/avg/max) = 145.7 | 145.7 | 145.7 Mbytes
Step Temp Volume Cella Cellb Cellc CellGamma Pxx Pyy Pzz Pxy Pxz Pyz Lx Ly Lz Press PotEng 
       0         1800    172711.88       73.664    73.664001       36.752          120   -189962.16   -190291.03   -261222.03    143.02919   -45.763357    61.221283       73.664    63.794896       36.752   -213825.07   -309191.56 
      10    1055.5247    172701.81    73.662568    73.662569    36.751286          120   -170314.59   -170348.91   -215059.32    116.45607   -19.100538   -457.62372    73.662568    63.793656    36.751286   -185240.94   -307762.71 
      20    1388.8152    172673.74    73.658577    73.658578    36.749294          120   -145099.19   -146268.35   -149355.23    381.31949    193.54586   -741.42377    73.658577      63.7902    36.749294   -146907.59   -308395.52 
      30    1515.6231    172631.62    73.652588    73.652588    36.746306          120   -94668.497   -95418.844   -73035.575   -307.17252   -888.41552   -682.74288    73.652588    63.785012    36.746306   -87707.639   -308620.17 
      40    1300.3102       172581    73.645388    73.645388    36.742714          120   -52959.597   -54214.132   -8025.9385   -1979.3372   -588.29075   -529.04863    73.645388    63.778777    36.742714   -38399.889    -308182.5 
      50    1447.1272    172526.37    73.637617    73.637618    36.738837          120   -40392.034   -41301.391   -12005.567   -580.43753    264.18295   -985.77082    73.637617    63.772048    36.738837   -31232.997   -308438.19 
      60    1615.0128    172468.61    73.629398    73.629398    36.734736          120   -41524.327   -40772.839   -59708.428   -1444.0894   -1269.6515   -932.92154    73.629398     63.76493    36.734736   -47335.198   -308733.54 
      70     1706.614    172406.38    73.620541    73.620542    36.730318          120   -40608.914   -43306.389   -115108.03   -1925.1196   -1945.6978   -450.02177    73.620541     63.75726    36.730318   -66341.112   -308888.08 
      80    1603.5651    172337.98    73.610804    73.610805     36.72546          120   -43761.834   -47262.406   -149691.18   -1684.4625   -1247.8372   -699.78729    73.610804    63.748827     36.72546   -80238.474   -308670.51 
      90    1438.6547    172262.21    73.600014    73.600015    36.720077          120   -42090.815   -42851.111    -154829.3   -797.62574    -2585.733   -2281.0349    73.600014    63.739483    36.720077   -79923.741   -308331.99 
     100     1496.372    172179.25    73.588198    73.588199    36.714181          120   -26600.309   -25954.563   -134555.06   -1494.8409   -1972.4179   -2673.7633    73.588198     63.72925    36.714181   -62369.977   -308421.67 
     110    1608.7614    172090.81    73.575596    73.575597    36.707894          120   -10428.376   -10676.756   -102971.53   -2124.9993   -744.32242   -3158.3401    73.575596    63.718336    36.707894   -41358.888   -308614.52 
     120    1636.4659    171999.01    73.562511    73.562512    36.701366          120   -2418.6649   -3008.2572   -65684.656   -1358.8536    419.65965   -1931.7009    73.562511    63.707004    36.701366   -23703.859   -308644.52 
     130    1605.7778    171905.68    73.549203    73.549204    36.694726          120   -932.41796   -1822.9053   -37091.643    7.0215917    -118.3913   -2215.2656    73.549203    63.695479    36.694726   -13282.322   -308563.32 
     140    1579.6845    171811.95    73.535834    73.535834    36.688056          120   -4186.5137   -5522.1607    -26397.76     135.0313   -1544.6878    -2726.962    73.535834    63.683901    36.688056   -12035.478   -308491.09 
     150    1602.7527    171718.07    73.522437    73.522438    36.681372          120   -10114.828   -12158.082   -39555.796   -1189.4491   -1881.0316   -1117.6561    73.522437    63.672299    36.681372   -20609.569   -308512.87 
     160    1661.6662    171623.42    73.508926    73.508926    36.674631          120   -18128.718   -15955.296   -64345.512   -605.64638   -1344.5629   -2719.4295    73.508926    63.660598    36.674631   -32809.842   -308604.42 
     170    1676.3375    171527.02    73.495161    73.495161    36.667764          120   -18690.327    -20059.68   -91051.975   -954.78191   -4457.1134   -3190.4225    73.495161    63.648677    36.667764   -43267.327   -308611.54 
     180     1647.244    171428.11     73.48103    73.481031    36.660714          120   -17738.068   -19757.493   -105742.98    416.57154   -4302.5671    -3516.289     73.48103     63.63644    36.660714   -47746.179   -308536.88 
     190    1633.8306    171326.45    73.466503    73.466504    36.653466          120   -17308.169   -15195.401   -107640.33    991.76589   -5143.1657   -2906.9285    73.466503    63.623859    36.653466   -46714.634   -308491.92 
     200    1647.9079    171222.38    73.451624    73.451625    36.646043          120   -13091.843   -14076.641   -97230.743   -571.17438   -5766.3994   -3489.3586    73.451624    63.610973    36.646043   -41466.409   -308498.66 
     210    1671.9569    171116.61    73.436497    73.436497    36.638495          120   -8977.8209   -10778.637   -83428.183    522.96966   -3509.3473   -2947.1064    73.436497    63.597872    36.638495   -34394.881   -308524.03 
     220    1680.3337    171010.03    73.421246    73.421247    36.630887          120   -5984.0163    -6712.597   -68428.154   -1032.6856   -1691.4609   -2770.3297    73.421246    63.584665    36.630887   -27041.589   -308520.04 
     230      1688.92    170903.51    73.405999    73.405999     36.62328          120   -5296.9563   -5068.8272   -58891.665   -1742.0495   -2229.1967   -3228.3535    73.405999     63.57146     36.62328   -23085.816   -308514.95 
     240    1692.0887    170797.61    73.390834    73.390835    36.615714          120   -6259.2258   -7289.2923   -55812.929   -1546.5481   -2721.5247    -4634.225    73.390834    63.558328    36.615714   -23120.482    -308500.3 
     250    1695.2759    170692.54    73.375782    73.375783    36.608204          120   -7034.6847   -6677.5657   -60297.575   -545.37447   -2191.8123   -4333.3251    73.375782    63.545292    36.608204   -24669.942   -308486.64 
     260    1729.8907    170588.29    73.360841    73.360842     36.60075          120   -8146.7462   -8854.5801   -68410.079   -346.15786   -2705.5397   -2801.7575    73.360841    63.532353     36.60075   -28470.468   -308534.45 
     270    1755.0099    170484.67    73.345984    73.345984    36.593337          120   -10175.106   -11736.987    -78917.71   -301.15732   -2852.3663   -3098.0278    73.345984    63.519486    36.593337   -33609.934   -308565.16 
     280    1730.1963    170381.36    73.331166    73.331166    36.585944          120   -13353.815   -11380.511   -85627.226    169.86556   -3315.9708   -1151.9607    73.331166    63.506653    36.585944   -36787.184   -308500.46 
     290    1730.1951    170278.26    73.316371    73.316372    36.578563          120   -11613.798   -9083.7911   -83803.382   -485.61246   -4193.6904   -1314.8389    73.316371    63.493841    36.578563   -34833.657   -308483.48 
     300     1749.077    170175.66    73.301643    73.301644    36.571215          120   -7483.4442   -7559.8577   -78502.594   -2630.4665   -3901.1992   -2324.9972    73.301643    63.481086    36.571215   -31181.965   -308502.37 
     310    1768.1516    170074.03    73.287048    73.287049    36.563934          120   -5374.6469   -4410.9739   -69886.205   -2842.3659   -3532.9159   -1045.4337    73.287048    63.468446    36.563934   -26557.275   -308522.51 
     320    1767.5207    169973.88    73.272659     73.27266    36.556755          120    -2827.107   -1912.9193   -64131.866   -529.12286   -3468.9239   -1836.2699    73.272659    63.455985    36.556755   -22957.297   -308505.15 
     330    1766.6328    169875.58    73.258533    73.258533    36.549707          120   -2773.1719   -1433.4584   -58524.251   -98.310505    -3397.892   -1107.6197    73.258533    63.443751    36.549707   -20910.294   -308487.76 
     340    1779.3579    169779.36    73.244698    73.244699    36.542804          120    -2418.104   -2461.5918   -57314.686    824.56243   -3426.8342   -1645.1138    73.244698     63.43177    36.542804   -20731.461   -308497.02 
     350    1778.4744    169685.26    73.231164    73.231164    36.536052          120   -1805.5367   -2839.6471   -56310.101   -32.977458   -2481.6718   -3800.3283    73.231164    63.420049    36.536052   -20318.428   -308480.14 
     360    1792.0885    169593.26    73.217926    73.217926    36.529447          120    -2835.693   -1741.6337   -63636.894    42.088349   -2323.8742   -4966.0836    73.217926    63.408584    36.529447   -22738.074   -308492.06 
     370    1796.1234    169503.13    73.204953    73.204954    36.522975          120   -1953.2821   -1186.3865   -69005.928   -676.58136   -902.38343   -3554.5692    73.204953     63.39735    36.522975   -24048.532   -308486.87 
     380    1819.9484    169414.73    73.192225    73.192226    36.516625          120   -3591.3286   -1355.7216   -70660.359   -1400.4503   -2311.7112   -3053.7315    73.192225    63.386327    36.516625    -25202.47    -308520.4 
     390    1791.9353    169327.95    73.179726    73.179726    36.510389          120   -462.58896    948.53984   -68058.224   -1658.5772   -1962.5226   -2017.8269    73.179726    63.375502    36.510389   -22524.091   -308455.44 
     400     1806.902    169242.92    73.167474    73.167475    36.504276          120    352.64617    4378.5972   -62394.648   -1362.6261   -2041.8034   -2167.2289    73.167474    63.364892    36.504276   -19221.135   -308472.27 
     410    1805.7856    169159.86    73.155503    73.155504    36.498304          120     2034.924     5435.227   -58252.068   -2028.1313   -910.75907   -1035.5417    73.155503    63.354525    36.498304   -16927.306   -308459.08 
     420    1806.3017    169078.87    73.143826    73.143827    36.492478          120     1883.713    5110.7057   -57079.217   -1311.3139   -2984.3293   -1496.1561    73.143826    63.344412    36.492478   -16694.933   -308450.97 
     430    1804.2095    168999.91    73.132439    73.132439    36.486797          120    4152.5144    5136.8711   -53794.086   -1670.8119   -3329.7311    -1795.882    73.132439     63.33455    36.486797     -14834.9   -308437.62 
     440    1838.0452    168922.99    73.121342    73.121342     36.48126          120    4103.2702    5186.5098   -53167.743   -1897.6021   -2649.5494   -1206.0933    73.121342     63.32494     36.48126   -14625.988   -308494.69 
     450    1842.5312    168848.04    73.110525    73.110526    36.475864          120    5281.0203    6835.8031   -54129.224   -1224.0352   -1757.8564   -1089.8161    73.110525    63.315573    36.475864   -14004.134    -308495.7 
     460    1842.4573    168774.95    73.099975    73.099975      36.4706          120     5406.328    6124.6179   -58394.857   -647.63909   -1196.3233    -1028.332    73.099975    63.306436      36.4706   -15621.304   -308489.39 
     470    1823.3427    168703.52     73.08966     73.08966    36.465453          120    7212.7727     7935.856   -56483.788   -62.268507   -150.94476   -1247.3556     73.08966    63.297503    36.465453   -13778.386   -308449.15 
     480    1838.9647    168633.69    73.079574    73.079574    36.460422          120    5308.3834    6936.3811   -58434.342   -473.29441   -641.18715   -1469.5683    73.079574    63.288768    36.460422   -15396.526   -308476.75 
     490    1820.9817    168565.29    73.069693    73.069693    36.455492          120    5723.4442    7046.0593   -57499.597   -1944.5949    881.41899   -113.42936    73.069693    63.280211    36.455492   -14910.031    -308441.3 
     500    1840.7032    168498.26    73.060005    73.060006    36.450659          120    6569.8178    8980.7047   -54897.032   -3172.3606   -51.654099   -1428.8281    73.060005    63.271821    36.450659   -13115.503   -308477.75 
     510    1839.4477    168432.62    73.050518    73.050518    36.445925          120    8275.2788    11767.283   -49747.047   -2910.6805    -2245.591   -504.31554    73.050518    63.263605    36.445925   -9901.4952   -308476.59 
     520    1856.6182    168368.54    73.041252    73.041252    36.441302          120    9319.4128    12754.069   -46928.254   -1285.1033     417.6079   -1327.0389    73.041252     63.25558    36.441302   -8284.9242   -308512.57 
     530    1845.2347    168306.08    73.032219    73.032219    36.436795          120    12165.456    15990.124   -46029.855   -1570.3659    50.744943   -850.26514    73.032219    63.247757    36.436795   -5958.0917   -308495.36 
     540    1837.6704    168245.28    73.023423    73.023424    36.432407          120    12736.313    13713.126   -49372.102    110.02286   -1684.0127   -1051.6411    73.023423     63.24014    36.432407   -7640.8876   -308486.38 
     550    1855.3447    168185.91    73.014833    73.014833    36.428121          120    11207.815    10549.309   -52491.672   -1333.2594   -1333.4792   -2286.4258    73.014833    63.232701    36.428121   -10244.849   -308529.01 
     560    1836.0084    168127.66    73.006402    73.006403    36.423915          120    9150.2174    10628.976   -54312.706   -2508.2964   -1110.6092   -1603.3665    73.006402      63.2254    36.423915   -11511.171   -308501.95 
     570    1822.7481    168070.32    72.998102    72.998103    36.419774          120    10890.084    12231.019   -52721.712   -1062.4293   -1506.6784   -648.39009    72.998102    63.218211    36.419774     -9866.87   -308485.72 
     580    1826.0546    168013.94    72.989939    72.989939    36.415701          120    12939.402    12688.229   -50642.755    -1497.863   -2694.0592   -2600.0578    72.989939    63.211142    36.415701   -8338.3745   -308503.91 
     590    1834.5084    167958.58    72.981921    72.981922    36.411701          120    13500.783    13679.228   -48853.962    683.21056   -1957.7487   -2791.3615    72.981921    63.204199    36.411701   -7224.6504   -308531.69 
     600     1834.148    167904.27    72.974054    72.974055    36.407776          120    15630.539    14423.112   -46930.013    1575.3753   -88.805691   -2093.5853    72.974054    63.197385    36.407776   -5625.4539   -308543.49 
     610    1832.4991    167851.08    72.966348    72.966349    36.403932          120    17362.606    16017.849   -44808.171      1489.18   -1874.8455   -865.16238    72.966348    63.190712    36.403932   -3809.2388   -308552.82 
     620    1832.8103     167799.1    72.958815    72.958815    36.400173          120    16583.823    17521.602   -42948.541   -978.04694     -689.888   -1277.7962    72.958815    63.184187    36.400173   -2947.7055    -308567.3 
     630    1811.6839    167748.32    72.951455    72.951455    36.396501          120    17145.138    16094.422   -40878.639   -1791.6933   -2174.9134   -1080.1361    72.951455    63.177814    36.396501   -2546.3596   -308540.39 
     640    1809.9456    167698.72    72.944263    72.944264    36.392913          120    18909.058    16727.148    -43764.93   -432.58737   -992.52812   -824.94543    72.944263    63.171586    36.392913   -2709.5744   -308551.06 
     650    1823.3598    167650.19    72.937227    72.937228    36.389403          120    17343.752     15306.58   -43138.073    753.97135   -1156.6297   -864.26625    72.937227    63.165492    36.389403   -3495.9134   -308591.02 
     660    1832.4515    167602.63    72.930329     72.93033    36.385961          120    16046.929    14615.457   -44039.261    1090.1427    492.44224   -3803.7949    72.930329    63.159519    36.385961   -4458.9585   -308621.86 
     670    1815.4878    167555.92    72.923552    72.923553     36.38258          120    15685.779    14299.243   -41526.833    349.95882   -1410.5865   -2640.4191    72.923552     63.15365     36.38258   -3847.2702   -308603.92 
     680    1803.9462    167510.04    72.916896    72.916897    36.379259          120    18864.142    16346.954   -39884.109    196.16758   -2372.5785     -2252.76    72.916896    63.147885    36.379259   -1557.6705   -308595.23 
     690    1817.0615    167465.12    72.910377    72.910378    36.376007          120    17701.711    18103.467   -43313.183   -1842.9104   -1488.1976   -685.01619    72.910377     63.14224    36.376007   -2502.6681   -308634.03 
     700    1801.4685    167421.07    72.903984    72.903985    36.372817          120    16986.795    17352.829   -43478.633   -590.86385    -2295.169   -804.04081    72.903984    63.136703    36.372817   -3046.3365    -308616.4 
     710     1800.701    167377.81    72.897704    72.897705    36.369684          120    17024.112    18814.872   -41872.522    -30.32991   -3286.6179   -1600.7024    72.897704    63.131264    36.369684   -2011.1796   -308628.21 
     720    1787.7214    167335.36    72.891542    72.891543     36.36661          120    16961.837    20620.603   -42174.286   -1206.1217   -4625.1201   -552.44527    72.891542    63.125928     36.36661   -1530.6154   -308615.52 
     730    1799.4736    167293.75    72.885499      72.8855    36.363595          120    18122.208    22431.388   -43903.813   -29.223162   -4247.3656    1598.9222    72.885499    63.120694    36.363595    -1116.739   -308649.36 
     740    1799.8913    167252.96    72.879575    72.879576    36.360639          120     18274.04    21330.858   -43864.111   -353.81683   -3645.8904    -6.605387    72.879575    63.115564    36.360639   -1419.7378   -308661.71 
     750    1796.4879    167212.96    72.873765    72.873765    36.357741          120    17270.647    21137.546   -43495.332    383.66114   -3839.8028   -1612.3885    72.873765    63.110532    36.357741    -1695.713   -308665.63 
     760    1787.8405    167173.71    72.868062    72.868063    36.354895          120    17276.782    22931.414   -41729.642   -283.05807    -3630.018   -3017.6595    72.868062    63.105594    36.354895   -507.14852   -308657.89 
     770    1786.6218    167135.26    72.862476    72.862476    36.352108          120    20697.013    23627.297   -38882.904   -238.32516   -2535.5505    590.48298    72.862476    63.100755    36.352108    1813.8019   -308665.03 
     780    1784.4862    167097.79    72.857031    72.857031    36.349392          120     22784.96    23993.034   -36200.814   -97.126073   -2010.1207    564.38843    72.857031     63.09604    36.349392    3525.7268   -308669.05 
     790    1778.9181    167061.42    72.851744    72.851744    36.346754          120    22435.515    25590.878   -35964.944    -193.4579   -1742.6916    -1859.733    72.851744    63.091462    36.346754    4020.4831   -308666.42 
     800    1789.5723    167026.15    72.846616    72.846616    36.344196          120    23543.591    23893.723   -37549.474   -424.16067   -3690.8515   -1429.7612    72.846616    63.087021    36.344196    3295.9464   -308693.62 
     810    1797.5637    166991.89    72.841636    72.841636    36.341711          120    22832.048    22965.712   -39679.458   -820.85773   -3874.5864   -2356.1021    72.841636    63.082708    36.341711     2039.434   -308715.31 
     820    1805.3987    166958.54    72.836786    72.836787    36.339291          120    23031.657    22287.687   -39094.202   -241.30209   -4281.5657   -820.43178    72.836786    63.078508    36.339291    2075.0473   -308736.33 
     830    1784.6269    166926.05    72.832061    72.832062    36.336934          120    21858.138    23265.195   -37973.323    1419.2909   -3152.6844    403.09326    72.832061    63.074416    36.336934    2383.3368   -308702.54 
     840    1777.1084    166894.41     72.82746     72.82746    36.334638          120    20120.554    25945.543   -37222.229    855.19228   -3103.3429    822.96519     72.82746    63.070431    36.334638    2947.9562    -308693.9 
     850    1776.1645    166863.66    72.822987    72.822987    36.332407          120     20986.03    26469.633    -35371.29    288.65082   -2717.2275    105.74916    72.822987    63.066557    36.332407    4028.1243   -308696.63 
     860    1787.2059    166833.86    72.818651    72.818651    36.330244          120    23622.931    25284.335   -37237.678   -219.37926    -2326.504   -1318.0456    72.818651    63.062802    36.330244    3889.8628   -308721.27 
     870    1780.2455    166804.97    72.814447    72.814448    36.328146          120    22619.016    27197.552    -39360.58   -1102.7992   -754.29781   -164.31663    72.814447    63.059162    36.328146    3485.3294   -308710.85 
     880    1772.2982    166776.93    72.810366    72.810367     36.32611          120    21961.184    26210.013   -39514.508   -564.63863   -1297.7948   -1133.5203    72.810366    63.055628     36.32611    2885.5628    -308698.5 
     890    1782.0255    166749.68    72.806401    72.806401    36.324132          120    22562.132    26817.955   -37584.859   -252.66727    -1188.408   -1698.9436    72.806401    63.052193    36.324132    3931.7426   -308718.55 
     900    1776.6416     166723.3    72.802562    72.802563    36.322217          120    24745.176    29205.766   -35191.069    711.92645   -3465.7077   -241.80067    72.802562    63.048869    36.322217    6253.2912   -308708.74 
     910    1789.4426    166697.94    72.798871    72.798871    36.320375          120    23707.116    29365.798    -36619.31    1577.3145   -1710.3841   -2.6480196    72.798871    63.045672    36.320375    5484.5347    -308732.9 
     920    1788.4663    166673.56    72.795321    72.795321    36.318604          120    24693.619    27226.632   -34647.144    373.24819   -2128.4837    -205.0445    72.795321    63.042598    36.318604    5757.7027    -308731.1 
     930    1787.5518    166650.11    72.791907    72.791907      36.3169          120     23713.53    27038.978   -36859.757   -334.95611    -2697.808    191.22477    72.791907    63.039641      36.3169    4630.9167   -308728.55 
     940    1796.3208    166627.52    72.788617    72.788618    36.315259          120     24714.16    26340.751   -36618.891    612.69036   -3003.2781   -520.30869    72.788617    63.036792    36.315259    4812.0066   -308745.12 
     950    1787.7927    166605.76    72.785449    72.785449    36.313678          120    24895.847    25840.584   -35322.553    472.07225   -422.92804   -1261.3211    72.785449    63.034048    36.313678    5137.9596    -308726.5 
     960    1798.0881    166584.83    72.782401    72.782401    36.312158          120     25403.67    21895.261   -35033.592    1137.6306   -790.90405   -1457.3069    72.782401    63.031409    36.312158    4088.4464    -308744.7 
     970    1786.1936    166564.67    72.779465    72.779466    36.310693          120    25731.537      22835.1   -33385.511   -422.56663   -2807.3429   -2299.1529    72.779465    63.028866    36.310693    5060.3752   -308719.08 
     980    1794.5293    166545.32    72.776646    72.776646    36.309287          120    26108.707    24485.011   -34043.835   -231.18464   -1645.1513   -2647.4029    72.776646    63.026425    36.309287    5516.6278   -308732.94 
     990    1781.3201    166526.81     72.77395     72.77395    36.307941          120    28359.365    26712.323   -31541.526    250.84602   -1219.8599   -608.32059     72.77395     63.02409    36.307941    7843.3872   -308704.82 
    1000    1791.5826    166509.29    72.771398    72.771399    36.306669          120     26894.82    28083.999   -32780.323    467.70386   -1100.0474    120.11353    72.771398     63.02188    36.306669    7399.4987   -308721.42 
Loop time of 413.928 on 1 procs for 1000 steps with 14848 atoms

Performance: 0.209 ns/day, 114.980 hours/ns, 2.416 timesteps/s
100.0% CPU use with 1 MPI tasks x no OpenMP threads

MPI task timing breakdown:
Section |  min time  |  avg time  |  max time  |%varavg| %total
---------------------------------------------------------------
Pair    | 286.57     | 286.57     | 286.57     |   0.0 | 69.23
Bond    | 0.00055552 | 0.00055552 | 0.00055552 |   0.0 |  0.00
Kspace  | 13.663     | 13.663     | 13.663     |   0.0 |  3.30
Neigh   | 105.04     | 105.04     | 105.04     |   0.0 | 25.38
Comm    | 0.63424    | 0.63424    | 0.63424    |   0.0 |  0.15
Output  | 0.012864   | 0.012864   | 0.012864   |   0.0 |  0.00
Modify  | 7.8647     | 7.8647     | 7.8647     |   0.0 |  1.90
Other   |            | 0.1495     |            |       |  0.04

Nlocal:    14848 ave 14848 max 14848 min
Histogram: 1 0 0 0 0 0 0 0 0 0
Nghost:    46348 ave 46348 max 46348 min
Histogram: 1 0 0 0 0 0 0 0 0 0
Neighs:    9.88126e+06 ave 9.88126e+06 max 9.88126e+06 min
Histogram: 1 0 0 0 0 0 0 0 0 0

Total # of neighbors = 9881265
Ave neighs/atom = 665.495
Ave special neighs/atom = 0
Neighbor list builds = 319
Dangerous builds = 0
PPPM initialization ...
  using 12-bit tables for long-range coulomb (../kspace.cpp:321)
  G vector (1/distance) = 0.20228
  grid = 36 50 24
  stencil order = 5
  estimated absolute RMS force accuracy = 0.00101799
  estimated relative force accuracy = 7.06953e-05
  using double precision FFTs
  3d grid and FFT values/proc = 65395 43200
Setting up Verlet run ...
  Unit style    : metal
  Current step  : 0
  Time step     : 0.001
Per MPI rank memory allocation (min/avg/max) = 149.2 | 149.2 | 149.2 Mbytes
Step Temp Volume Cella Cellb Cellc CellGamma Pxx Pyy Pzz Pxy Pxz Pyz Lx Ly Lz Press PotEng 
       0    1791.5826    166509.29    72.771398    72.771399    36.306669          120    26900.935    28090.607   -32779.665    467.68138    -1099.828    120.04948    72.771398     63.02188    36.306669    7403.9588   -308721.34 
  100000     1792.178    168537.65    73.065698    73.065699    36.453499          120     20630.17    23276.607   -34836.115    121.72546   -2550.7687    602.53374    73.065698    63.276752    36.453499    3023.5541   -308909.84 
Loop time of 42001.8 on 1 procs for 100000 steps with 14848 atoms

Performance: 0.206 ns/day, 116.672 hours/ns, 2.381 timesteps/s
100.0% CPU use with 1 MPI tasks x no OpenMP threads

MPI task timing breakdown:
Section |  min time  |  avg time  |  max time  |%varavg| %total
---------------------------------------------------------------
Pair    | 28704      | 28704      | 28704      |   0.0 | 68.34
Bond    | 0.055337   | 0.055337   | 0.055337   |   0.0 |  0.00
Kspace  | 1394.7     | 1394.7     | 1394.7     |   0.0 |  3.32
Neigh   | 11014      | 11014      | 11014      |   0.0 | 26.22
Comm    | 65.404     | 65.404     | 65.404     |   0.0 |  0.16
Output  | 0.00012088 | 0.00012088 | 0.00012088 |   0.0 |  0.00
Modify  | 807.79     | 807.79     | 807.79     |   0.0 |  1.92
Other   |            | 15.65      |            |       |  0.04

Nlocal:    14848 ave 14848 max 14848 min
Histogram: 1 0 0 0 0 0 0 0 0 0
Nghost:    46176 ave 46176 max 46176 min
Histogram: 1 0 0 0 0 0 0 0 0 0
Neighs:    9.76225e+06 ave 9.76225e+06 max 9.76225e+06 min
Histogram: 1 0 0 0 0 0 0 0 0 0

Total # of neighbors = 9762251
Ave neighs/atom = 657.479
Ave special neighs/atom = 0
Neighbor list builds = 32503
Dangerous builds = 0
 
All done!
Total wall time: 11:46:57
