LAMMPS (16 Mar 2018)
Reading data file ...
  triclinic box = (0 0 0) to (9.208 7.97436 18.376) with tilt (-4.604 0 0)
  1 by 1 by 1 MPI processor grid
  reading atoms ...
  116 atoms
Finding 1-2 1-3 1-4 neighbors ...
  special bond factors lj:   0          0          0         
  special bond factors coul: 0          0          0         
  0 = max # of 1-2 neighbors
  0 = max # of 1-3 neighbors
  0 = max # of 1-4 neighbors
  1 = max # of special neighbors
Replicating atoms ...
  triclinic box = (0 0 0) to (73.664 63.7949 36.752) with tilt (-36.832 0 0)
  1 by 1 by 1 MPI processor grid
  14848 atoms
Finding 1-2 1-3 1-4 neighbors ...
  special bond factors lj:   0          0          0         
  special bond factors coul: 0          0          0         
  0 = max # of 1-2 neighbors
  0 = max # of 1-3 neighbors
  0 = max # of 1-4 neighbors
  1 = max # of special neighbors
  Time spent = 0.00357699 secs
PPPM initialization ...
WARNING: System is not charge neutral, net charge = -0.2048 (../kspace.cpp:302)
  using 12-bit tables for long-range coulomb (../kspace.cpp:321)
  G vector (1/distance) = 0.201681
  grid = 36 50 24
  stencil order = 5
  estimated absolute RMS force accuracy = 0.00105653
  estimated relative force accuracy = 7.33721e-05
  using double precision FFTs
  3d grid and FFT values/proc = 65395 43200
Neighbor list info ...
  update every 1 steps, delay 0 steps, check yes
  max neighbors/atom: 2000, page size: 100000
  master list distance cutoff = 15.3
  ghost atom cutoff = 15.3
  binsize = 7.65, bins = 15 9 5
  3 neighbor lists, perpetual/occasional/extra = 3 0 0
  (1) pair morse, perpetual
      attributes: half, newton on
      pair build: half/bin/newton/tri
      stencil: half/bin/3d/newton/tri
      bin: standard
  (2) pair buck, perpetual, copy from (1)
      attributes: half, newton on
      pair build: copy
      stencil: none
      bin: none
  (3) pair lj/cut/coul/long, perpetual, copy from (1)
      attributes: half, newton on
      pair build: copy
      stencil: none
      bin: none
Setting up Verlet run ...
  Unit style    : metal
  Current step  : 0
  Time step     : 0.001
Per MPI rank memory allocation (min/avg/max) = 145.7 | 145.7 | 145.7 Mbytes
Step Temp Volume Cella Cellb Cellc CellGamma Pxx Pyy Pzz Pxy Pxz Pyz Lx Ly Lz Press PotEng 
       0         1100    172711.88       73.664    73.664001       36.752          120   -198349.75   -198547.73   -269501.85    87.912133    -27.96819    37.412369       73.664    63.794896       36.752   -222133.11   -309191.56 
      10    733.79173    172694.55    73.661536    73.661537    36.750771          120   -188364.11   -188423.11   -234237.84    153.50061     -45.2547   -344.06059    73.661536    63.792762    36.750771   -203675.02   -308497.21 
      20    1052.4632       172645     73.65449    73.654491    36.747256          120   -170790.03    -171155.2   -169642.71    179.96312   -142.89485   -685.99536     73.65449     63.78666    36.747256   -170529.31   -309113.06 
      30    1150.7352    172568.79    73.643651    73.643652    36.741848          120   -124323.86   -124688.33   -90869.892   -183.83085   -850.12159   -621.76355    73.643651    63.777274    36.741848   -113294.03   -309299.16 
      40    926.29414    172474.87    73.630289    73.630289    36.735181          120    -75889.01   -76825.995   -15843.853   -1644.8806   -1029.0019   -499.16032    73.630289    63.765701    36.735181   -56186.286   -308856.86 
      50    1053.6129    172371.85    73.615626    73.615627    36.727866          120   -53971.056   -55281.497   -8469.7167   -379.85017   -352.46045   -754.44203    73.615626    63.753003    36.727866   -39240.757    -309087.8 
      60      1260.72    172262.76    73.600092    73.600093    36.720115          120   -51024.345   -50427.454   -57566.948   -1432.7142   -1532.5572    -924.4759    73.600092     63.73955    36.720115   -53006.249   -309474.32 
      70    1370.6171    172146.06    73.583469     73.58347    36.711822          120   -48918.557   -50395.449   -118226.85   -2030.5176   -2202.4403   -755.49209    73.583469    63.725154    36.711822   -72513.619   -309687.29 
      80    1257.4977    172019.19    73.565387    73.565388    36.702801          120   -50236.991   -52857.777   -158304.61    -2083.992   -1885.3298   -530.40677    73.565387    63.709495    36.702801   -87133.127   -309484.12 
      90    1052.8049    171880.41    73.545599      73.5456    36.692928          120    -48677.81   -48616.262   -166601.42   -1593.2976    -2517.886   -2230.3852    73.545599    63.692358    36.692928   -87965.163   -309105.85 
     100    1090.2773    171730.35     73.52419    73.524191    36.682247          120   -32566.617   -31551.614   -146030.41   -1399.5038   -2204.4324   -1952.7718     73.52419    63.673817    36.682247   -70049.546   -309191.38 
     110    1224.3262    171572.37    73.501637    73.501638    36.670995          120   -14663.546   -14450.968   -110693.72    -2152.617   -310.68076   -2301.8782    73.501637    63.654286    36.670995   -46602.745   -309460.71 
     120    1246.9675    171410.84    73.478563    73.478564    36.659483          120   -4936.6036    -4869.748   -69303.689   -1827.2864    434.55259   -1837.5395    73.478563    63.634303    36.659483   -26370.014   -309518.83 
     130    1187.9242    171249.62    73.455519    73.455519    36.647986          120   -4491.5928   -2928.7255   -36295.855   -1138.8845   -560.13766   -1656.6421    73.455519    63.614346    36.647986   -14572.058   -309421.57 
     140    1147.8413    171091.18    73.432858    73.432859     36.63668          120   -7762.4089    -7202.662   -23977.749   -841.24953   -854.10956   -2739.0417    73.432858    63.594721     36.63668    -12980.94   -309358.92 
     150    1166.4684    170936.28     73.41069    73.410691     36.62562          120   -15268.907   -13891.906   -39295.315   -1452.2425   -936.66165   -2018.7949     73.41069    63.575523     36.62562   -22818.709   -309408.09 
     160    1225.9035    170783.96    73.388878    73.388879    36.614738          120   -23145.574   -20403.868   -67270.198   -1749.3299   -1099.7717   -3012.0316    73.388878    63.556634    36.614738    -36939.88   -309538.29 
     170     1239.275     170632.6    73.367193    73.367193    36.603919          120   -25253.335   -24638.081   -94811.104    -1735.469   -2199.0741   -3302.6244    73.367193    63.537853    36.603919   -48234.173   -309583.41 
     180    1189.0134    170481.07    73.345467    73.345468    36.593079          120   -23392.893   -22325.311   -112097.61   -756.60299   -1741.3927   -3251.7857    73.345467    63.519038    36.593079   -52605.272   -309508.26 
     190    1165.3522    170329.19    73.323681    73.323681     36.58221          120   -21508.765   -18084.959   -113883.45   -1056.4201   -3614.4046    -2346.794    73.323681    63.500171     36.58221   -51159.057   -309482.97 
     200    1174.0134    170177.75    73.301943    73.301944    36.571365          120    -17272.66   -15714.583   -100099.35   -1612.9855   -2732.8894   -1961.5543    73.301943    63.481345    36.571365   -44362.196    -309517.2 
     210    1211.3586    170028.11    73.280452    73.280452    36.560642          120   -14244.979   -13679.241   -83074.488   -1094.9784   -1950.7666   -2409.8813    73.280452    63.462733    36.560642   -36999.569    -309607.9 
     220    1201.0596     169881.7    73.259412    73.259412    36.550145          120   -10740.534   -9319.4796   -67836.132   -2080.9598   -1812.1208   -3235.4604    73.259412    63.444512    36.550145   -29298.715   -309605.94 
     230    1186.1685    169739.72    73.238997    73.238998     36.53996          120   -11130.929   -9215.7897   -59580.641   -1904.2583   -1976.4165   -5567.2163    73.238997    63.426833     36.53996   -26642.453   -309594.27 
     240    1184.9126    169602.59    73.219269    73.219269    36.530117          120   -12604.005   -10143.557   -56702.306   -1264.1703   -2068.4859    -6086.362    73.219269    63.409747    36.530117   -26483.289   -309609.98 
     250    1187.4066    169470.17    73.200207    73.200208    36.520607          120   -14358.129   -13161.852   -63189.648   -161.01659    -905.5481   -5132.5142    73.200207     63.39324    36.520607   -30236.543    -309631.9 
     260    1206.6877    169341.74    73.181712    73.181712     36.51138          120   -17238.838   -14217.981   -74081.773   -168.32104   -1158.2761   -5059.5679    73.181712    63.377222     36.51138   -35179.531    -309688.3 
     270    1205.8049    169216.39    73.163651    73.163652    36.502369          120   -18651.861   -15236.091   -83187.162    505.06709   -1895.0483   -3666.0474    73.163651    63.361581    36.502369   -39025.038   -309706.73 
     280    1180.4433    169093.37    73.145917    73.145917    36.493521          120   -18927.348    -17003.94   -89196.525    892.16023   -626.89244   -2115.8337    73.145917    63.346223    36.493521   -41709.271   -309678.51 
     290    1183.5714    168972.13    73.128431    73.128432    36.484797          120   -16898.494   -15690.129   -88068.319     211.2276   -1198.3864   -3090.7884    73.128431     63.33108    36.484797   -40218.981   -309703.79 
     300    1183.5202     168852.7    73.111197    73.111198    36.476199          120   -13351.834    -13141.79   -81645.417   -617.18864   -1556.3734   -3410.6281    73.111197    63.316154    36.476199   -36046.347    -309722.5 
     310    1185.1066    168735.42    73.094267    73.094268    36.467752          120   -11474.323   -11318.166   -72154.458   -751.43724   -1819.4782   -4348.6508    73.094267    63.301493    36.467752   -31648.982   -309743.63 
     320    1175.3319     168620.7    73.077698    73.077698    36.459486          120   -9372.9251   -8754.6853   -63758.743    928.20828   -2211.0947   -3705.6968    73.077698    63.287143    36.459486   -27295.451   -309742.01 
     330    1173.1105    168508.86    73.061537    73.061538    36.451423          120   -7648.1109   -7314.6393   -55620.845    1584.4623   -2177.6241   -3905.8924    73.061537    63.273148    36.451423   -23527.865   -309754.37 
     340    1182.6926    168400.04    73.045807    73.045808    36.443575          120   -7130.7028   -7481.1898   -56366.155   -163.00602   -1255.7604   -4507.6466    73.045807    63.259526    36.443575   -23659.349   -309789.92 
     350    1185.4967    168293.94    73.030462    73.030463    36.435919          120   -6797.6601   -6666.8653   -62879.136    126.37692   -32.158803   -3425.5843    73.030462    63.246236    36.435919   -25447.887   -309812.69 
     360    1182.2238    168189.92    73.015414    73.015414    36.428411          120   -9133.2177   -8091.7014   -70182.393    516.03828     81.90482   -4082.5867    73.015414    63.233204    36.428411   -29135.771   -309824.65 
     370    1160.3069    168087.25    73.000553    73.000554    36.420997          120   -8002.4914   -7683.7113   -75158.625    249.68021    -1273.578   -3243.8923    73.000553    63.220334    36.420997   -30281.609   -309799.55 
     380    1167.6881    167985.46    72.985815    72.985815    36.413644          120   -7035.4287   -5978.1508   -77064.284   -331.66775   -1058.3487   -2886.2331    72.985815     63.20757    36.413644   -30025.955   -309830.64 
     390    1163.2276    167884.42    72.971179    72.971179    36.406342          120   -5864.7448   -4971.0629   -73138.501   -1302.9687    1388.2416   -3392.4483    72.971179    63.194895    36.406342   -27991.436   -309839.03 
     400    1162.9794    167784.24    72.956661    72.956661    36.399099          120   -5056.1901   -2731.6216   -66066.348   -748.97086    903.52124   -4083.8233    72.956661    63.182322    36.399099   -24618.053   -309854.75 
     410    1167.5186    167685.26    72.942311    72.942312    36.391939          120     968.9883     1877.637   -58386.576   -151.67006   -97.186066   -3492.8171    72.942311    63.169895    36.391939   -18513.317   -309878.94 
     420    1158.4022     167588.1    72.928221    72.928222     36.38491          120    2488.7879    2604.3804   -52639.393      175.437     816.7044    -3582.383    72.928221    63.157693     36.38491   -15848.741   -309877.08 
     430    1158.1058    167492.96    72.914418    72.914419    36.378023          120    1420.6748    888.20443   -52452.955    971.43336   -487.50436   -3196.7986    72.914418    63.145739    36.378023   -16714.692   -309892.34 
     440    1153.2903    167399.56    72.900863    72.900863     36.37126          120     147.5771    -145.7658   -54954.038    519.35225    260.08504    -3711.966    72.900863       63.134     36.37126   -18317.409   -309898.84 
     450    1148.9221    167307.51    72.887497    72.887497    36.364592          120   -1761.8578    46.003346    -58789.27   -304.59774     73.94843   -3006.0676    72.887497    63.122425    36.364592   -20168.375   -309905.04 
     460    1156.4934     167216.4    72.874265    72.874265     36.35799          120   -836.17054    1090.4515   -60903.751   -57.607353    -610.6936    -1875.745    72.874265    63.110965     36.35799    -20216.49   -309935.33 
     470    1155.7347    167126.13    72.861148    72.861149    36.351446          120     1821.283     2754.714   -61150.135   -1246.0681   -800.30905   -1682.5663    72.861148    63.099606    36.351446   -18858.046   -309949.69 
     480    1144.8694    167036.78    72.848162    72.848163    36.344967          120    3174.9612    4882.6143    -59205.84   -1713.0716   -349.81632   -1795.4419    72.848162     63.08836    36.344967   -17049.422   -309943.03 
     490    1146.3025    166948.53     72.83533    72.835331    36.338565          120    5007.3639    5645.1858   -57618.225   -349.77901   -178.58937   -3686.5242     72.83533    63.077247    36.338565   -15655.225   -309960.02 
     500    1141.3453     166861.5    72.822672    72.822672     36.33225          120     5105.375    6750.9545   -54919.459    463.67993   -50.123125    -4161.903    72.822672    63.066284     36.33225   -14354.376   -309964.64 
     510    1134.2776    166775.76    72.810196    72.810197    36.326025          120    3917.8891    5066.1281    -53092.69    229.96094   -1549.6128   -3806.6137    72.810196     63.05548    36.326025   -14702.891   -309965.55 
     520    1138.2673    166691.24    72.797894    72.797895    36.319888          120    4990.9871    4984.1604   -51438.695   -120.66489   -1307.4139   -4992.8749    72.797894    63.044826    36.319888   -13821.182   -309987.31 
     530    1129.0651    166607.96    72.785769    72.785769    36.313838          120    4794.0916    6447.6521   -49804.454    -382.0775   -848.88349    -4515.316    72.785769    63.034325    36.313838   -12854.237   -309982.88 
     540    1137.6803    166525.97    72.773828    72.773828    36.307881          120    5676.6492     6475.514   -49676.947   -729.92152    -1131.642   -3208.6295    72.773828    63.023984    36.307881   -12508.261   -310012.18 
     550    1133.0951    166445.31    72.762076    72.762076    36.302017          120     8397.368    7430.8791   -50154.019   -302.58621   -2794.4416   -2569.7386    72.762076    63.013807    36.302017   -11441.924   -310016.12 
     560    1144.9279       166366    72.750517    72.750517     36.29625          120    9058.9204    6940.7397   -52697.898   -318.24605   -2768.7919   -3044.4074    72.750517    63.003796     36.29625   -12232.746   -310052.12 
     570    1132.6493    166287.94    72.739138    72.739138    36.290573          120    8991.8063    10108.528   -50900.575   -516.53853   -2132.2994   -4307.9699    72.739138    62.993942    36.290573    -10600.08   -310040.94 
     580    1124.8993     166211.3    72.727961    72.727962    36.284997          120    10509.831    11490.216   -48096.344   -162.88411   -420.74833    -3795.877    72.727961    62.984263    36.284997   -8698.7654   -310039.49 
     590    1136.4807    166136.23     72.71701    72.717011    36.279534          120    10409.248    12155.825    -49341.65   -237.20001   -675.68896   -3079.1137     72.71701    62.974779    36.279534   -8925.5256   -310073.52 
     600    1132.2686    166062.72    72.706284    72.706284    36.274182          120    10959.631    13141.031   -44613.181   -736.60674    412.13456   -2766.3607    72.706284    62.965489    36.274182   -6837.5062   -310078.03 
     610    1124.6097    165990.97    72.695811    72.695812    36.268957          120     13450.08    13265.166   -44299.504   -221.66958    38.695455    -3792.562    72.695811     62.95642    36.268957   -5861.4193   -310075.64 
     620    1118.1742    165921.06    72.685603    72.685603    36.263864          120    12445.242     14143.33   -43519.796    884.84634   -300.56151   -4775.4329    72.685603    62.947579    36.263864   -5643.7416   -310074.97 
     630    1124.0943    165852.93    72.675654    72.675654      36.2589          120    12093.138     16022.45   -42122.557   -143.39243   -1941.9133   -3946.5476    72.675654    62.938963      36.2589   -4668.9897   -310097.16 
     640    1119.6489    165786.65    72.665971    72.665972    36.254069          120     11619.79    16559.433   -42266.925    546.63648   -2745.2966   -3063.4688    72.665971    62.930578    36.254069   -4695.9007   -310100.13 
     650    1108.2338    165722.16    72.656548    72.656548    36.249368          120    11085.237    16614.954    -41857.45    759.10156   -2388.1959   -4609.4831    72.656548    62.922417    36.249368   -4719.0864   -310089.36 
     660    1114.6361     165659.4    72.647374    72.647375    36.244791          120    12915.331    16737.318   -40730.445    1304.4459   -2687.2693   -4590.0997    72.647374    62.914472    36.244791   -3692.5983   -310110.95 
     670    1106.0214    165598.42     72.63846     72.63846    36.240344          120    15561.291    17962.434   -42142.876    1117.0138   -1656.2785   -4105.8692     72.63846    62.906752    36.240344   -2873.0502   -310104.16 
     680     1110.604    165539.28    72.629811    72.629811    36.236029          120    15941.081    18631.441   -40859.981    704.27047   -1653.9253   -2156.9047    72.629811    62.899262    36.236029   -2095.8197    -310121.7 
     690    1108.6397    165481.99    72.621432    72.621432    36.231848          120     16044.73    20206.122   -40640.957    995.54004   -2545.4827   -3418.5431    72.621432    62.892005    36.231848   -1463.3682   -310126.95 
     700    1113.8947    165426.57    72.613323    72.613324    36.227803          120    17178.645    19097.624   -40425.553    370.69125    -1344.113   -1882.0037    72.613323    62.884983    36.227803   -1383.0948   -310146.51 
     710    1106.3537    165372.97    72.605481    72.605481     36.22389          120    16651.754    19776.636   -38750.268    910.53119   -1680.6383   -2622.2014    72.605481    62.878191     36.22389   -773.95926   -310140.61 
     720     1103.078     165321.2    72.597903    72.597903    36.220109          120    16307.379    18868.967   -38086.484     112.3489   -780.46393   -2944.4931    72.597903    62.871629    36.220109   -970.04602   -310143.39 
     730    1100.0931    165271.15    72.590576    72.590577    36.216454          120    17030.694    19918.618   -38398.834   -343.48751   -1597.1222   -1967.5919    72.590576    62.865284    36.216454   -483.17417   -310145.92 
     740    1104.2548    165222.83    72.583502    72.583502    36.212924          120     16656.44    21012.328   -38207.009    6.3512048   -2002.9157   -2192.7864    72.583502    62.859157    36.212924    -179.4135   -310161.62 
     750    1090.4243    165176.22    72.576675    72.576676    36.209519          120    16766.296     20916.33   -37057.208    66.959134   -1516.1456   -2711.6569    72.576675    62.853245    36.209519    208.47245   -310142.62 
     760    1097.9913    165131.28    72.570092    72.570092    36.206234          120    17430.603    20925.697   -37346.523    595.93027    -803.6938   -2257.1567    72.570092    62.847544    36.206234    336.59223   -310164.31 
     770     1096.392    165087.98    72.563749    72.563749    36.203069          120    18544.382     22731.09   -36615.582    542.66851   -785.77399   -2404.7233    72.563749    62.842051    36.203069    1553.2965   -310167.38 
     780     1100.933    165046.43    72.557661    72.557662    36.200032          120    21014.722    23123.154   -33324.802    186.68102   -2421.0575   -2539.6617    72.557661    62.836779    36.200032    3604.3581   -310182.01 
     790    1094.9028    165006.81    72.551855    72.551855    36.197135          120    19658.495    23263.821   -34469.232    77.753732   -1651.4105   -1895.9954    72.551855     62.83175    36.197135    2817.6946   -310176.85 
     800    1083.8709    164968.97    72.546307    72.546308    36.194367          120    19190.824    21815.372   -35536.936     682.3365    -1764.201   -2317.7619    72.546307    62.826946    36.194367    1823.0869   -310161.16 
     810    1094.0247    164932.69    72.540989    72.540989    36.191714          120    18811.471    23263.388   -36139.662    1746.5665    -1206.612   -2499.1833    72.540989     62.82234    36.191714    1978.3994   -310186.18 
     820    1092.2834    164897.93    72.535893    72.535894    36.189172          120    19063.115    23497.446   -35271.386     1390.011   -1796.1606   -909.02296    72.535893    62.817927    36.189172     2429.725   -310187.71 
     830    1091.2851     164864.7    72.531021    72.531021    36.186741          120    18961.765    23618.371   -35466.898    1198.5398   -1300.1473   -2371.3047    72.531021    62.813707    36.186741     2371.079   -310190.45 
     840    1087.0031    164832.91    72.526357    72.526358    36.184414          120     18657.92    21925.463   -37039.754    1406.0134   -146.93489   -2662.8373    72.526357    62.809669    36.184414    1181.2099   -310185.78 
     850    1096.0703    164802.36    72.521878    72.521878    36.182179          120    20016.398    21269.439   -35166.852    941.63675   -405.37363   -1721.0706    72.521878    62.805789    36.182179    2039.6616   -310206.95 
     860    1083.2286    164773.12    72.517588    72.517589    36.180039          120    20881.186    23167.813   -34804.198    26.299116   -741.49389    -1707.057    72.517588    62.802074    36.180039    3081.6002   -310185.14 
     870    1081.4562    164745.25    72.513499      72.5135    36.177999          120    20666.009    22928.282   -34523.305    8.5120224   -955.57698   -2128.3389    72.513499    62.798533    36.177999    3023.6617   -310184.36 
     880    1089.3872     164718.7    72.509604    72.509605    36.176056          120    21010.297    22973.451   -34534.153    149.47678   -1051.4975   -2627.9861    72.509604     62.79516    36.176056    3149.8648   -310201.74 
     890    1087.4842    164693.45    72.505898    72.505899    36.174207          120    21145.776    22514.355   -35005.147    628.93883   -172.59082   -2507.0228    72.505898    62.791951    36.174207    2884.9948   -310199.46 
     900    1089.0348    164669.43    72.502373    72.502374    36.172448          120    21675.397    23885.011   -35253.338    583.95779    584.08164   -2450.7328    72.502373    62.788898    36.172448    3435.6897   -310202.88 
     910    1088.3673    164646.63    72.499027    72.499027    36.170778          120    20913.208    23422.706   -34637.411    1608.4991    263.15349    -504.8557    72.499027    62.785999    36.170778    3232.8342   -310202.09 
     920    1093.8031    164625.01    72.495854    72.495854    36.169195          120    21987.452    24588.011   -33519.346    154.52175   -564.82177   -1810.0719    72.495854    62.783252    36.169195    4352.0389   -310213.65 
     930    1086.6776     164604.7    72.492872    72.492872    36.167708          120    22050.197    26195.315    -30689.56    147.97984    1051.4878   -2202.6039    72.492872    62.780669    36.167708    5851.9841   -310199.97 
     940    1096.1877    164585.81    72.490098    72.490099    36.166324          120    20349.261    25565.307   -31301.066    722.46149   -1974.9214   -2865.6175    72.490098    62.778267    36.166324    4871.1674   -310217.59 
     950    1094.5066     164568.2    72.487514    72.487514    36.165035          120    20313.854    26052.849   -32870.678    663.40794   -3519.2953   -2866.8466    72.487514    62.776029    36.165035    4498.6751    -310213.6 
     960    1098.1782    164551.78    72.485103    72.485104    36.163832          120     21879.73    25836.143   -33513.326     1775.938   -3046.7016   -2258.6295    72.485103    62.773941    36.163832    4734.1822    -310218.6 
     970    1099.4364    164536.53    72.482862    72.482863    36.162714          120     22887.43    25096.129   -32880.409    1430.2934   -2734.3343   -1954.9498    72.482862    62.772001    36.162714    5034.3833   -310220.15 
     980    1095.2266    164522.44    72.480793    72.480794    36.161682          120    23269.665    26012.662   -31631.149    643.53426   -1241.4316   -1868.2537    72.480793    62.770209    36.161682     5883.726    -310211.6 
     990    1090.9125    164509.59    72.478907    72.478908    36.160741          120    23729.842    26972.211   -29614.248   -32.242531   -1672.7109   -1913.3631    72.478907    62.768575    36.160741    7029.2684   -310201.88 
    1000    1088.8982    164498.13    72.477223    72.477224      36.1599          120     24863.88    27651.012   -28667.918   -418.55173   -1789.6919   -1618.4754    72.477223    62.767117      36.1599    7948.9917   -310196.08 
Loop time of 399.594 on 1 procs for 1000 steps with 14848 atoms

Performance: 0.216 ns/day, 110.998 hours/ns, 2.503 timesteps/s
100.0% CPU use with 1 MPI tasks x no OpenMP threads

MPI task timing breakdown:
Section |  min time  |  avg time  |  max time  |%varavg| %total
---------------------------------------------------------------
Pair    | 292.52     | 292.52     | 292.52     |   0.0 | 73.20
Bond    | 0.00058198 | 0.00058198 | 0.00058198 |   0.0 |  0.00
Kspace  | 14.028     | 14.028     | 14.028     |   0.0 |  3.51
Neigh   | 84.19      | 84.19      | 84.19      |   0.0 | 21.07
Comm    | 0.60764    | 0.60764    | 0.60764    |   0.0 |  0.15
Output  | 0.013385   | 0.013385   | 0.013385   |   0.0 |  0.00
Modify  | 8.0499     | 8.0499     | 8.0499     |   0.0 |  2.01
Other   |            | 0.1818     |            |       |  0.05

Nlocal:    14848 ave 14848 max 14848 min
Histogram: 1 0 0 0 0 0 0 0 0 0
Nghost:    46674 ave 46674 max 46674 min
Histogram: 1 0 0 0 0 0 0 0 0 0
Neighs:    1.00036e+07 ave 1.00036e+07 max 1.00036e+07 min
Histogram: 1 0 0 0 0 0 0 0 0 0

Total # of neighbors = 10003552
Ave neighs/atom = 673.731
Ave special neighs/atom = 0
Neighbor list builds = 253
Dangerous builds = 0
PPPM initialization ...
  using 12-bit tables for long-range coulomb (../kspace.cpp:321)
  G vector (1/distance) = 0.202479
  grid = 36 50 24
  stencil order = 5
  estimated absolute RMS force accuracy = 0.00100552
  estimated relative force accuracy = 6.98296e-05
  using double precision FFTs
  3d grid and FFT values/proc = 65395 43200
Setting up Verlet run ...
  Unit style    : metal
  Current step  : 0
  Time step     : 0.001
Per MPI rank memory allocation (min/avg/max) = 150.3 | 150.3 | 150.3 Mbytes
Step Temp Volume Cella Cellb Cellc CellGamma Pxx Pyy Pzz Pxy Pxz Pyz Lx Ly Lz Press PotEng 
       0    1088.8982    164498.13    72.477223    72.477224      36.1599          120     24872.81     27660.37   -28664.948   -418.19164   -1789.6418   -1618.6632    72.477223    62.767117      36.1599    7956.0773   -310195.96 
  100000    1102.5137    167013.66      72.8448    72.844801     36.34329          120    17857.901    19574.123   -35343.205   -179.82337   -723.91358   -2497.5325      72.8448    63.085448     36.34329    696.27309    -310431.7 
Loop time of 39423.6 on 1 procs for 100000 steps with 14848 atoms

Performance: 0.219 ns/day, 109.510 hours/ns, 2.537 timesteps/s
100.0% CPU use with 1 MPI tasks x no OpenMP threads

MPI task timing breakdown:
Section |  min time  |  avg time  |  max time  |%varavg| %total
---------------------------------------------------------------
Pair    | 28700      | 28700      | 28700      |   0.0 | 72.80
Bond    | 0.055862   | 0.055862   | 0.055862   |   0.0 |  0.00
Kspace  | 1419.5     | 1419.5     | 1419.5     |   0.0 |  3.60
Neigh   | 8412.8     | 8412.8     | 8412.8     |   0.0 | 21.34
Comm    | 61.329     | 61.329     | 61.329     |   0.0 |  0.16
Output  | 0.00013089 | 0.00013089 | 0.00013089 |   0.0 |  0.00
Modify  | 811.74     | 811.74     | 811.74     |   0.0 |  2.06
Other   |            | 18.45      |            |       |  0.05

Nlocal:    14848 ave 14848 max 14848 min
Histogram: 1 0 0 0 0 0 0 0 0 0
Nghost:    46345 ave 46345 max 46345 min
Histogram: 1 0 0 0 0 0 0 0 0 0
Neighs:    9.85176e+06 ave 9.85176e+06 max 9.85176e+06 min
Histogram: 1 0 0 0 0 0 0 0 0 0

Total # of neighbors = 9851758
Ave neighs/atom = 663.507
Ave special neighs/atom = 0
Neighbor list builds = 25038
Dangerous builds = 0
 
All done!
Total wall time: 11:03:44
