LAMMPS (16 Mar 2018)
Reading data file ...
  triclinic box = (0 0 0) to (9.208 7.97436 18.376) with tilt (-4.604 0 0)
  1 by 1 by 1 MPI processor grid
  reading atoms ...
  116 atoms
Finding 1-2 1-3 1-4 neighbors ...
  special bond factors lj:   0          0          0         
  special bond factors coul: 0          0          0         
  0 = max # of 1-2 neighbors
  0 = max # of 1-3 neighbors
  0 = max # of 1-4 neighbors
  1 = max # of special neighbors
Replicating atoms ...
  triclinic box = (0 0 0) to (73.664 63.7949 36.752) with tilt (-36.832 0 0)
  1 by 1 by 1 MPI processor grid
  14848 atoms
Finding 1-2 1-3 1-4 neighbors ...
  special bond factors lj:   0          0          0         
  special bond factors coul: 0          0          0         
  0 = max # of 1-2 neighbors
  0 = max # of 1-3 neighbors
  0 = max # of 1-4 neighbors
  1 = max # of special neighbors
  Time spent = 0.00275803 secs
PPPM initialization ...
WARNING: System is not charge neutral, net charge = -0.2048 (../kspace.cpp:302)
  using 12-bit tables for long-range coulomb (../kspace.cpp:321)
  G vector (1/distance) = 0.201681
  grid = 36 50 24
  stencil order = 5
  estimated absolute RMS force accuracy = 0.00105653
  estimated relative force accuracy = 7.33721e-05
  using double precision FFTs
  3d grid and FFT values/proc = 65395 43200
Neighbor list info ...
  update every 1 steps, delay 0 steps, check yes
  max neighbors/atom: 2000, page size: 100000
  master list distance cutoff = 15.3
  ghost atom cutoff = 15.3
  binsize = 7.65, bins = 15 9 5
  3 neighbor lists, perpetual/occasional/extra = 3 0 0
  (1) pair morse, perpetual
      attributes: half, newton on
      pair build: half/bin/newton/tri
      stencil: half/bin/3d/newton/tri
      bin: standard
  (2) pair buck, perpetual, copy from (1)
      attributes: half, newton on
      pair build: copy
      stencil: none
      bin: none
  (3) pair lj/cut/coul/long, perpetual, copy from (1)
      attributes: half, newton on
      pair build: copy
      stencil: none
      bin: none
Setting up Verlet run ...
  Unit style    : metal
  Current step  : 0
  Time step     : 0.001
Per MPI rank memory allocation (min/avg/max) = 145.7 | 145.7 | 145.7 Mbytes
Step Temp Volume Cella Cellb Cellc CellGamma Pxx Pyy Pzz Pxy Pxz Pyz Lx Ly Lz Press PotEng 
       0         1600    172711.88       73.664    73.664001       36.752          120   -192358.61   -192650.09   -263587.69    127.28146   -40.679024    54.418736       73.664    63.794896       36.752    -216198.8   -309191.56 
      10    963.90607    172700.38    73.662365    73.662366    36.751185          120   -175428.82   -175471.38   -220488.34    129.59097   -25.627965    -423.4058    73.662365     63.79348    36.751185   -190462.85   -307973.08 
      20    1294.9158     172668.1    73.657776    73.657776    36.748895          120   -152049.32    -152988.2    -154877.3    317.15218    89.259702   -735.24461    73.657776    63.789505    36.748895   -153304.94   -308603.92 
      30    1414.1147    172619.33     73.65084    73.650841    36.745434          120   -102162.97   -102831.99   -77720.886   -270.21346     -879.931   -670.12338     73.65084    63.783499    36.745434   -94238.616   -308817.92 
      40    1195.4151    172560.32    73.642446    73.642447    36.741247          120   -58504.355    -59689.86   -9721.6228   -1922.3986   -728.12683   -510.32982    73.642446     63.77623    36.741247   -42638.613   -308376.84 
      50    1337.8432    172496.36    73.633347    73.633348    36.736707          120   -43776.551   -44841.246   -11114.743   -488.25962    108.31126   -923.99291    73.633347     63.76835    36.736707    -33244.18   -308627.04 
      60    1514.8684    172428.68    73.623715    73.623716    36.731901          120   -44215.989   -43496.067   -59507.791   -1479.8023   -1319.8312   -977.98625    73.623715    63.760009    36.731901   -49073.282   -308943.95 
      70    1610.4625    172355.85    73.613348    73.613349    36.726729          120   -43105.177   -45487.679   -116295.83   -1952.7745    -2004.562   -503.79033    73.613348     63.75103    36.726729    -68296.23   -309110.97 
      80    1506.0878    172275.95    73.601971    73.601972    36.721053          120   -46000.089   -49190.927    -152481.3   -1818.7751    -1442.627   -710.36231    73.601971    63.741178    36.721053   -82557.439   -308897.41 
      90    1331.9586    172187.63    73.589392    73.589392    36.714777          120   -44220.336   -44700.147    -158343.3   -986.44743   -2538.6747   -2339.4412    73.589392    63.730283    36.714777    -82421.26    -308548.3 
     100    1385.3807    172091.14    73.575643    73.575644    36.707917          120   -28453.001   -27581.949   -137726.91   -1485.1404   -2192.3496   -2520.7487    73.575643    63.718377    36.707917   -64587.288   -308636.14 
     110    1505.0306    171988.47    73.561009    73.561009    36.700616          120   -11644.915   -11787.692   -105246.99   -2223.7779   -632.61259   -2989.2183    73.561009    63.705703    36.700616   -42893.198   -308848.59 
     120     1530.918    171882.15    73.545847    73.545848    36.693052          120   -3321.0457   -3477.9083   -66806.658   -1492.1881     287.4564   -1786.5358    73.545847    63.692573    36.693052   -24535.204   -308880.79 
     130    1495.6481    171774.36     73.53047    73.530471     36.68538          120   -2109.7077    -2159.351   -36995.317   -91.175661   -216.08035   -2056.1887     73.53047    63.679256     36.68538   -13754.792   -308796.93 
     140    1464.6373    171666.48    73.515074    73.515074    36.677699          120   -5603.2586   -6127.2346   -25940.519   -13.584914   -1389.0741   -2820.6271    73.515074    63.665922    36.677699   -12557.004   -308721.43 
     150    1486.5255    171558.82    73.499703    73.499703     36.67003          120   -11214.639   -12821.973   -39630.364   -1100.7284   -1899.0221   -1368.8603    73.499703     63.65261     36.67003   -21222.325   -308747.67 
     160    1541.5734    171450.73    73.484262    73.484263    36.662326          120   -19206.015   -16891.177   -65051.168   -933.16477   -1487.7792   -2873.7045    73.484262    63.639239    36.662326    -33716.12   -308838.16 
     170      1559.19    171341.12    73.468599      73.4686    36.654512          120   -20728.929   -21533.987   -92724.725   -1282.1407   -4175.8144   -3114.4452    73.468599    63.625674    36.654512    -44995.88   -308858.67 
     180    1526.0188    171229.12    73.452588    73.452588    36.646523          120   -18928.921   -20419.361   -107502.28    169.75679   -3459.7281   -3404.9637    73.452588    63.611807    36.646523   -48950.186   -308783.09 
     190    1512.9384    171114.55    73.436203    73.436203    36.638349          120    -18933.59   -16073.354   -109428.97    224.39128   -5430.9266   -2916.5109    73.436203    63.597618    36.638349   -48145.305   -308747.02 
     200    1527.8952    170997.86    73.419505    73.419506    36.630018          120   -14407.946   -14475.569   -98381.729   -1230.7504   -5682.7423   -3171.4221    73.419505    63.583157    36.630018   -42421.748    -308762.5 
     210    1553.0157    170879.92    73.402622    73.402623    36.621595          120   -10679.139   -10764.499   -82728.813   -279.29377   -3628.6398   -2859.3458    73.402622    63.568536    36.621595    -34724.15   -308797.94 
     220    1563.5165    170761.83    73.385709    73.385709    36.613157          120   -7791.9529   -7873.2918   -68749.931   -1635.6349   -1858.4621   -3458.7298    73.385709    63.553889    36.613157   -28138.392   -308805.91 
     230     1560.459    170644.53    73.368902    73.368902    36.604771          120   -6409.4674   -6871.7674   -59267.404   -1830.8692   -2710.3097   -4798.3026    73.368902    63.539333    36.604771    -24182.88   -308786.57 
     240    1564.0868    170528.65     73.35229    73.352291    36.596484          120   -6925.7166   -7817.9939   -55966.531    -1505.906   -2670.0635   -5164.2093     73.35229    63.524947    36.596484    -23570.08   -308781.61 
     250    1575.0239    170414.45    73.335913    73.335914    36.588313          120   -8282.5098   -7876.6712    -59735.29   -1299.5286   -2687.0068   -4861.9567    73.335913    63.510764    36.588313   -25298.157   -308790.87 
     260    1601.1712    170301.91    73.319766    73.319767    36.580257          120   -9004.5761   -11469.575   -70516.027    -417.5731   -2963.3709    -4060.438    73.319766    63.496781    36.580257   -30330.059   -308830.18 
     270    1611.3841    170190.67    73.303798    73.303799     36.57229          120   -11011.425   -13624.565   -80844.388   -1240.7712   -3103.0573   -2788.7544    73.303798    63.482952     36.57229   -35160.126   -308841.58 
     280    1600.7092    170080.36    73.287957    73.287957    36.564387          120     -13667.3    -13870.19   -86414.776   -112.84236   -4241.3985   -1407.9445    73.287957    63.469233    36.564387   -37984.089   -308813.99 
     290    1611.6271    169970.84    73.272223    73.272224    36.556537          120   -14069.174   -10337.095   -84468.841   -1477.8594   -4172.3401   -1104.3959    73.272223    63.455607    36.556537   -36291.704   -308827.77 
     300    1607.8565    169862.41    73.256639     73.25664    36.548762          120   -8250.0538   -7979.1313   -80436.093   -2175.9813   -4656.1345   -1684.6908    73.256639    63.442111    36.548762   -32221.759   -308813.48 
     310     1628.209    169755.56    73.241275    73.241276    36.541097          120   -7001.6466   -6047.5076   -71879.859   -2033.8752   -3100.3158   -1304.4503    73.241275    63.428805    36.541097   -28309.671   -308847.65 
     320    1622.0124    169650.74    73.226198    73.226198    36.533574          120   -4471.4802   -3784.9015   -62571.952   -367.62715   -1913.5641    -1978.224    73.226198    63.415748    36.533574   -23609.445   -308829.96 
     330    1608.2351    169548.41    73.211471    73.211472    36.526227          120    -3203.839   -2911.9586   -56846.053    351.42472   -2974.0124   -1986.1089    73.211471    63.402995    36.526227   -20987.283    -308798.5 
     340     1624.727    169448.78    73.197128    73.197129    36.519071          120    -2780.394   -1859.5869   -57676.705    1227.8938   -2920.3203   -3256.6249    73.197128    63.390573    36.519071   -20772.229   -308825.68 
     350    1636.5032    169351.81    73.183162    73.183163    36.512103          120   -3330.4823   -4158.7582    -59611.62    608.20869   -2266.4537   -3692.4253    73.183162    63.378478    36.512103   -22366.954   -308845.06 
     360    1633.3624    169257.23    73.169537    73.169538    36.505306          120    -4747.716   -3732.3123   -66772.432    7.8653961   -2673.1298   -2464.1212    73.169537    63.366679    36.505306   -25084.154   -308836.98 
     370    1627.1724     169164.7    73.156201    73.156202    36.498652          120   -4372.7028   -929.66868   -70757.018    -295.2565   -3608.6675   -2814.7781    73.156201    63.355129    36.498652    -25353.13   -308824.27 
     380     1644.933    169074.06    73.143133    73.143133    36.492132          120   -3088.6775    -418.4383   -70982.548   -1769.7564   -3736.6664   -1526.5424    73.143133    63.343812    36.492132   -24829.888   -308859.21 
     390    1640.9862    168985.26    73.130324    73.130325    36.485742          120   -1805.2018   -94.746967   -69703.058   -2641.7629    -2560.891   -3365.5338    73.130324    63.332719    36.485742   -23867.669   -308853.37 
     400    1637.6798    168898.27    73.117773    73.117774     36.47948          120   -479.11502    2025.5677    -64586.04    -2827.542   -2358.7387    -3578.268    73.117773     63.32185     36.47948   -21013.196   -308850.35 
     410    1631.0981    168813.25    73.105503    73.105503    36.473358          120     2066.983    4253.9592    -59045.92   -1258.8185   -1953.0875   -1677.7609    73.105503    63.311223    36.473358   -17574.993   -308843.17 
     420    1627.7166    168730.39     73.09354    73.093541     36.46739          120    4375.6023    7681.9309   -53392.916   -745.78151   -2586.7809   -1256.7109     73.09354    63.300863     36.46739   -13778.461   -308842.64 
     430    1616.6782    168649.89    73.081914    73.081915    36.461589          120     4784.579     6392.788    -51537.93   -683.66693   -1241.6332   -2684.4955    73.081914    63.290795    36.461589   -13453.521   -308827.89 
     440    1638.0325    168571.61    73.070606    73.070606    36.455947          120    3988.5623    2612.2779   -53334.994   -2062.9729   -3362.7944   -2293.3832    73.070606    63.281002    36.455947   -15578.051   -308876.55 
     450    1638.1207     168495.2    73.059563    73.059564    36.450438          120      3570.93    3269.9482   -58057.675   -2032.1734   -2283.4773   -1592.9775    73.059563    63.271438    36.450438   -17072.266   -308886.32 
     460    1647.2416    168420.33    73.048741    73.048742    36.445039          120    4348.0046     1207.352   -60182.243   -1278.2669   -3225.7697   -2004.5597    73.048741    63.262066    36.445039   -18208.962   -308914.98 
     470    1634.3569    168346.79    73.038106    73.038107    36.439733          120    3725.6038    2838.6631   -59895.891   -607.20774   -2544.8404   -2384.8459    73.038106    63.252856    36.439733   -17777.208   -308901.45 
     480    1627.3397    168274.45    73.027643    73.027644    36.434513          120    2960.2695    6624.7523   -60001.597   -885.02201   -4080.1577   -2411.4674    73.027643    63.243795    36.434513   -16805.525   -308899.79 
     490    1623.1938     168203.3    73.017349     73.01735    36.429377          120     3945.154    9344.9566   -57967.111   -202.97679   -4496.5307   -3321.0852    73.017349     63.23488    36.429377   -14892.334   -308904.48 
     500    1634.4915    168133.39    73.007232    73.007233    36.424329          120     5120.595    8011.3641   -54175.727   -1188.5175    -2955.496   -3240.8082    73.007232    63.226118    36.424329   -13681.256   -308939.39 
     510    1634.7031    168064.73    72.997293    72.997294    36.419371          120    5607.1683    7697.6172   -52708.815   -727.75185   -2971.6662   -2460.9758    72.997293    63.217511    36.419371   -13134.676   -308953.19 
     520    1616.4534    167997.29    72.987528    72.987529    36.414499          120    8492.0334    9244.2859   -50744.319    946.54778   -2524.4068   -2086.2382    72.987528    63.209054    36.414499   -11002.667   -308931.19 
     530    1626.4571    167931.14    72.977947    72.977947    36.409718          120    9417.3725    9126.3669    -50070.28    698.15566   -3437.4769   -1131.6588    72.977947    63.200756    36.409718   -10508.847   -308962.96 
     540    1613.4796    167866.24    72.968545    72.968546    36.405028          120    9597.6248    11208.683   -52202.609   -202.46223   -3535.4563   -1210.9721    72.968545    63.192614    36.405028   -10465.434   -308951.02 
     550    1609.0519    167802.47    72.959303    72.959303    36.400417          120    7922.7501    9601.6906   -56317.822   -171.60131   -3569.6321   -2487.8614    72.959303     63.18461    36.400417   -12931.127   -308954.88 
     560     1617.743    167739.52    72.950179    72.950179    36.395864          120    9043.8388    9594.3515   -59523.069    63.739341   -3846.4099   -786.66913    72.950179    63.176708    36.395864   -13628.293   -308983.72 
     570    1614.7017    167677.26    72.941151    72.941152    36.391361          120     10362.27    10028.773    -57291.81   -1540.5309   -4393.1452   -1574.1249    72.941151    63.168891    36.391361   -12300.256   -308989.06 
     580    1611.4452    167615.73    72.932228    72.932229    36.386909          120     11346.69    11873.684   -53443.246   -695.58707   -2966.3367   -1618.4764    72.932228    63.161163    36.386909   -10074.291   -308994.33 
     590    1607.6709    167555.06    72.923428    72.923429    36.382518          120    12026.701    13136.291   -51134.364    694.08494   -886.19482   -1664.0969    72.923428    63.153542    36.382518   -8657.1238   -308999.07 
     600    1612.1683    167495.37    72.914768    72.914769    36.378198          120     14324.72    15925.976   -47690.352    643.43925    336.16497   -1599.5533    72.914768    63.146042    36.378198   -5813.2186   -309017.82 
     610    1615.9927    167436.85    72.906275    72.906276     36.37396          120    14781.994    15685.353   -45053.674    41.647004    -921.7722   -449.81077    72.906275    63.138687     36.37396    -4862.109   -309034.72 
     620    1609.4377    167379.53    72.897955    72.897956     36.36981          120    15134.283    14850.249     -42023.8   -481.39132   -2946.6882   -1688.4513    72.897955    63.131482     36.36981   -4013.0896   -309033.45 
     630    1600.6634    167323.42    72.889808    72.889808    36.365745          120    14660.377    13238.745   -44330.259   -512.57442   -4110.0319   -1792.6239    72.889808    63.124426    36.365745   -5477.0457   -309027.13 
     640    1614.5751    167268.33    72.881808    72.881809    36.361754          120    14497.796    12637.511   -47219.719   -1409.3842    -3761.144   -651.73352    72.881808    63.117498    36.361754    -6694.804   -309063.42 
     650     1609.968    167214.07    72.873926    72.873927    36.357821          120    13925.235    12300.992   -51855.021   -1442.7429   -3605.8658   -1259.4417    72.873926    63.110672    36.357821   -8542.9314    -309064.2 
     660    1587.7494    167160.44    72.866135    72.866135    36.353934          120    13383.925    13575.113   -49900.247    125.16884   -3856.1246   -297.76109    72.866135    63.103924    36.353934   -7647.0698   -309031.38 
     670    1605.5095    167107.45    72.858434    72.858435    36.350092          120    13079.966    15110.096   -48650.937   -61.812938   -3161.4146   -179.35998    72.858434    63.097256    36.350092   -6820.2916   -309074.39 
     680    1612.5025    167055.18    72.850836    72.850837    36.346301          120    15695.144    15850.046   -45985.675   -190.99888   -3446.6859   -387.24268    72.850836    63.090676    36.346301   -4813.4949   -309096.91 
     690     1599.505    167003.79    72.843366    72.843367    36.342574          120    18719.665    17281.125   -44573.661    -140.4839   -3031.6609    -1676.665    72.843366    63.084206    36.342574   -2857.6234   -309080.41 
     700     1598.849    166953.42    72.836042    72.836042     36.33892          120    16928.257     18227.16   -43217.492   -1004.6865   -2375.1621   -1889.3001    72.836042    63.077863     36.33892   -2687.3582   -309087.93 
     710    1605.2887    166904.07    72.828864    72.828865    36.335339          120    16463.105    17907.218   -40712.185   -1707.7032   -3449.8009   -1778.4887    72.828864    63.071647    36.335339    -2113.954   -309109.37 
     720    1594.7075    166855.74    72.821834    72.821834    36.331831          120    16757.229    17686.499   -40608.922    178.75212   -3163.6742   -1328.8674    72.821834    63.065558    36.331831   -2055.0647   -309096.45 
     730     1600.474    166808.38    72.814943    72.814944    36.328394          120    16775.358    17729.865   -43673.332    1616.3891   -3004.9164   -1944.5422    72.814943    63.059591    36.328394   -3056.0365   -309114.98 
     740    1577.2879    166761.89    72.808177    72.808178    36.325018          120    16866.748    17370.784   -41451.272    1535.6343   -3150.4099   -1758.7553    72.808177    63.053732    36.325018   -2404.5799   -309077.02 
     750    1602.5209    166716.28     72.80154     72.80154    36.321707          120      19045.1    19146.577   -39874.674    374.39611   -4139.6436     -494.868     72.80154    63.047984    36.321707   -560.99857   -309132.64 
     760    1603.0098    166671.74    72.795056    72.795056    36.318472          120    22247.372     22268.35   -37297.537    1273.1256   -3899.9259   -533.70186    72.795056    63.042368    36.318472    2406.0617   -309139.73 
     770    1595.2419    166628.48    72.788758    72.788759    36.315329          120    21417.546    23469.266   -37875.641     632.3649    -2688.239   -2036.4563    72.788758    63.036914    36.315329    2337.0569   -309130.73 
     780    1583.8284    166586.47     72.78264     72.78264    36.312277          120    19794.849    21792.376   -40345.713    1390.2254   -4007.8995   -1275.1435     72.78264    63.031616    36.312277    413.83761    -309114.7 
     790    1588.4487    166545.52    72.776676    72.776676    36.309301          120    21190.131     22245.32   -38532.521    1202.3197   -1948.8772   -2062.1152    72.776676    63.026451    36.309301      1634.31   -309129.17 
     800    1606.0712    166505.69    72.770873    72.770874    36.306406          120    20044.978    25171.182   -39951.577    621.89994    -602.0918   -1644.5895    72.770873    63.021425    36.306406    1754.8611   -309166.93 
     810    1597.9372    166466.98    72.765233    72.765234    36.303593          120    21434.117    25786.559   -37835.837   -117.80227   -232.03024   -275.12904    72.765233    63.016541    36.303593    3128.2795   -309155.18 
     820     1587.553    166429.48     72.75977     72.75977    36.300867          120    24179.071    26822.408   -35575.945   -739.63614     -1726.53   -1233.2053     72.75977     63.01181    36.300867    5141.8444   -309139.32 
     830    1584.0889    166393.34    72.754502    72.754502    36.298239          120    23196.094     24638.17   -35647.346    -154.6155   -1560.5935   -3382.1342    72.754502    63.007247    36.298239    4062.3061   -309137.48 
     840    1582.3962    166358.41    72.749411    72.749412    36.295699          120    22826.466    25330.901   -39083.289   -25.107701   -1233.0677   -3228.1422    72.749411    63.002839    36.295699     3024.693   -309138.22 
     850    1588.2829    166324.57    72.744479    72.744479    36.293238          120    22662.291    25236.273    -40219.42   -471.21009   -327.08339   -4229.9526    72.744479    62.998567    36.293238    2559.7148   -309152.03 
     860    1581.6138    166291.77    72.739695    72.739696    36.290851          120    22330.154    24853.381   -39457.089     237.5484   -1049.5124   -2283.7128    72.739695    62.994425    36.290851    2575.4821   -309141.01 
     870    1597.0016    166259.97    72.735058    72.735059    36.288538          120    24035.928    25279.489    -36732.14     944.3273   -190.28157   -114.22175    72.735058    62.990409    36.288538    4194.4258   -309171.53 
     880    1581.5997    166229.28    72.730583    72.730584    36.286305          120    24966.659    27112.076    -34503.58    1589.9409   -384.75906    -835.1104    72.730583    62.986534    36.286305    5858.3849   -309143.63 
     890    1585.9231    166199.83    72.726288    72.726288    36.284162          120    25549.084    26283.017    -34608.08    419.40107   -993.80521   -1313.7378    72.726288    62.982813    36.284162    5741.3402   -309153.34 
     900    1594.4118    166171.57    72.722165    72.722166    36.282105          120     23380.47    25269.758   -37569.337    539.80667    92.508655   -701.90339    72.722165    62.979243    36.282105    3693.6302   -309170.84 
     910    1584.5447    166144.31    72.718189    72.718189    36.280121          120    21024.741    25586.966   -38578.743   -1215.3498    424.17272   -1771.6871    72.718189    62.975799    36.280121    2677.6548   -309151.91 
     920     1590.075    166117.92    72.714338    72.714338      36.2782          120    20634.875    27944.886   -39161.681   -672.89862    676.80492    -1202.912    72.714338    62.972464      36.2782    3139.3599   -309162.61 
     930    1582.1157    166092.43    72.710619     72.71062    36.276345          120    24072.033    28072.232   -36818.041   -10.382617   -897.21775   -1594.8966    72.710619    62.969244    36.276345    5108.7413   -309146.07 
     940    1589.9267    166067.98    72.707052    72.707052    36.274565          120    25092.394    27634.205   -36046.484   -53.054316   -861.51822   -3309.8472    72.707052    62.966154    36.274565    5560.0383   -309159.69 
     950    1591.7404     166044.6    72.703639    72.703639    36.272862          120    24677.693     28201.92   -35894.867    926.24945   -436.79636   -3444.5512    72.703639    62.963199    36.272862    5661.5817   -309161.29 
     960    1599.5349    166022.28     72.70038    72.700381    36.271237          120    24003.492    29562.307   -36690.173    485.96797   -246.98035   -1527.2904     72.70038    62.960377    36.271237    5625.2085   -309173.76 
     970    1606.1078    166000.99    72.697274    72.697274    36.269687          120    24990.202    29851.166   -34849.885    487.35459   -295.76067   -1092.8231    72.697274    62.957686    36.269687    6663.8276    -309184.2 
     980    1604.8996    165980.82    72.694329     72.69433    36.268218          120    24745.421    29680.485   -33512.359   -214.65755   -869.11971   -2169.5893    72.694329    62.955136    36.268218    6971.1824   -309179.35 
     990     1605.907    165961.78    72.691549    72.691549    36.266831          120    25482.887    28280.714   -33785.831   -297.78707    157.99629   -2877.5901    72.691549    62.952729    36.266831    6659.2569   -309179.36 
    1000    1589.2678    165943.78    72.688921    72.688921    36.265519          120    24514.801    26275.604   -34791.734    891.60981   -1322.1366   -2686.6111    72.688921    62.950452    36.265519    5332.8902   -309145.44 
Loop time of 330.986 on 1 procs for 1000 steps with 14848 atoms

Performance: 0.261 ns/day, 91.941 hours/ns, 3.021 timesteps/s
100.0% CPU use with 1 MPI tasks x no OpenMP threads

MPI task timing breakdown:
Section |  min time  |  avg time  |  max time  |%varavg| %total
---------------------------------------------------------------
Pair    | 231.79     | 231.79     | 231.79     |   0.0 | 70.03
Bond    | 0.0001905  | 0.0001905  | 0.0001905  |   0.0 |  0.00
Kspace  | 10.713     | 10.713     | 10.713     |   0.0 |  3.24
Neigh   | 81.811     | 81.811     | 81.811     |   0.0 | 24.72
Comm    | 0.46486    | 0.46486    | 0.46486    |   0.0 |  0.14
Output  | 0.01043    | 0.01043    | 0.01043    |   0.0 |  0.00
Modify  | 6.0997     | 6.0997     | 6.0997     |   0.0 |  1.84
Other   |            | 0.1017     |            |       |  0.03

Nlocal:    14848 ave 14848 max 14848 min
Histogram: 1 0 0 0 0 0 0 0 0 0
Nghost:    46452 ave 46452 max 46452 min
Histogram: 1 0 0 0 0 0 0 0 0 0
Neighs:    9.91622e+06 ave 9.91622e+06 max 9.91622e+06 min
Histogram: 1 0 0 0 0 0 0 0 0 0

Total # of neighbors = 9916224
Ave neighs/atom = 667.849
Ave special neighs/atom = 0
Neighbor list builds = 300
Dangerous builds = 0
PPPM initialization ...
  using 12-bit tables for long-range coulomb (../kspace.cpp:321)
  G vector (1/distance) = 0.202336
  grid = 36 50 24
  stencil order = 5
  estimated absolute RMS force accuracy = 0.00101448
  estimated relative force accuracy = 7.04518e-05
  using double precision FFTs
  3d grid and FFT values/proc = 65395 43200
Setting up Verlet run ...
  Unit style    : metal
  Current step  : 0
  Time step     : 0.001
Per MPI rank memory allocation (min/avg/max) = 149.2 | 149.2 | 149.2 Mbytes
Step Temp Volume Cella Cellb Cellc CellGamma Pxx Pyy Pzz Pxy Pxz Pyz Lx Ly Lz Press PotEng 
       0    1589.2678    165943.78    72.688921    72.688921    36.265519          120     24521.35     26282.32   -34790.933    891.48501   -1321.8849   -2686.4747    72.688921    62.950452    36.265519     5337.579   -309145.36 
  100000    1592.8497    168664.31    73.083997    73.083997    36.462628          120    14440.947    21526.879   -39431.003   -2418.1358   -436.80817    -1988.861    73.083997    63.292598    36.462628   -1154.3924   -309322.08 
Loop time of 33933.1 on 1 procs for 100000 steps with 14848 atoms

Performance: 0.255 ns/day, 94.259 hours/ns, 2.947 timesteps/s
95.5% CPU use with 1 MPI tasks x no OpenMP threads

MPI task timing breakdown:
Section |  min time  |  avg time  |  max time  |%varavg| %total
---------------------------------------------------------------
Pair    | 24019      | 24019      | 24019      |   0.0 | 70.78
Bond    | 0.015088   | 0.015088   | 0.015088   |   0.0 |  0.00
Kspace  | 1075.9     | 1075.9     | 1075.9     |   0.0 |  3.17
Neigh   | 8171.1     | 8171.1     | 8171.1     |   0.0 | 24.08
Comm    | 48.013     | 48.013     | 48.013     |   0.0 |  0.14
Output  | 9.9182e-05 | 9.9182e-05 | 9.9182e-05 |   0.0 |  0.00
Modify  | 609.2      | 609.2      | 609.2      |   0.0 |  1.80
Other   |            | 10.16      |            |       |  0.03

Nlocal:    14848 ave 14848 max 14848 min
Histogram: 1 0 0 0 0 0 0 0 0 0
Nghost:    45983 ave 45983 max 45983 min
Histogram: 1 0 0 0 0 0 0 0 0 0
Neighs:    9.75498e+06 ave 9.75498e+06 max 9.75498e+06 min
Histogram: 1 0 0 0 0 0 0 0 0 0

Total # of neighbors = 9754984
Ave neighs/atom = 656.99
Ave special neighs/atom = 0
Neighbor list builds = 29891
Dangerous builds = 0
 
All done!
Total wall time: 9:31:05
