LAMMPS (16 Mar 2018)
Reading data file ...
  triclinic box = (0 0 0) to (9.208 7.97436 18.376) with tilt (-4.604 0 0)
  1 by 1 by 1 MPI processor grid
  reading atoms ...
  116 atoms
Finding 1-2 1-3 1-4 neighbors ...
  special bond factors lj:   0          0          0         
  special bond factors coul: 0          0          0         
  0 = max # of 1-2 neighbors
  0 = max # of 1-3 neighbors
  0 = max # of 1-4 neighbors
  1 = max # of special neighbors
Replicating atoms ...
  triclinic box = (0 0 0) to (73.664 63.7949 36.752) with tilt (-36.832 0 0)
  1 by 1 by 1 MPI processor grid
  14848 atoms
Finding 1-2 1-3 1-4 neighbors ...
  special bond factors lj:   0          0          0         
  special bond factors coul: 0          0          0         
  0 = max # of 1-2 neighbors
  0 = max # of 1-3 neighbors
  0 = max # of 1-4 neighbors
  1 = max # of special neighbors
  Time spent = 0.00432301 secs
PPPM initialization ...
WARNING: System is not charge neutral, net charge = -0.2048 (../kspace.cpp:302)
  using 12-bit tables for long-range coulomb (../kspace.cpp:321)
  G vector (1/distance) = 0.201681
  grid = 36 50 24
  stencil order = 5
  estimated absolute RMS force accuracy = 0.00105653
  estimated relative force accuracy = 7.33721e-05
  using double precision FFTs
  3d grid and FFT values/proc = 65395 43200
Neighbor list info ...
  update every 1 steps, delay 0 steps, check yes
  max neighbors/atom: 2000, page size: 100000
  master list distance cutoff = 15.3
  ghost atom cutoff = 15.3
  binsize = 7.65, bins = 15 9 5
  3 neighbor lists, perpetual/occasional/extra = 3 0 0
  (1) pair morse, perpetual
      attributes: half, newton on
      pair build: half/bin/newton/tri
      stencil: half/bin/3d/newton/tri
      bin: standard
  (2) pair buck, perpetual, copy from (1)
      attributes: half, newton on
      pair build: copy
      stencil: none
      bin: none
  (3) pair lj/cut/coul/long, perpetual, copy from (1)
      attributes: half, newton on
      pair build: copy
      stencil: none
      bin: none
Setting up Verlet run ...
  Unit style    : metal
  Current step  : 0
  Time step     : 0.001
Per MPI rank memory allocation (min/avg/max) = 145.7 | 145.7 | 145.7 Mbytes
Step Temp Volume Cella Cellb Cellc CellGamma Pxx Pyy Pzz Pxy Pxz Pyz Lx Ly Lz Press PotEng 
       0         1900    172711.88       73.664    73.664001       36.752          120   -188763.93    -189111.5    -260039.2    150.90305   -48.305524    64.622557       73.664    63.794896       36.752   -212638.21   -309191.56 
      10    1101.2719    172702.41    73.662654    73.662654    36.751328          120   -167768.99   -167805.91   -212358.92    108.97814   -15.438184   -476.87869    73.662654     63.79373    36.751328   -182644.61   -307657.43 
      20    1435.2141    172676.11    73.658914    73.658915    36.749463          120   -141720.73   -142998.55   -146656.11    409.90087    248.52438   -744.54091    73.658914    63.790492    36.749463    -143791.8   -308290.19 
      30    1565.8086    172636.78    73.653322    73.653322    36.746672          120   -91143.432   -91927.703   -70793.275   -324.85548   -888.46478   -686.72713    73.653322    63.785648    36.746672    -84621.47   -308520.45 
      40    1352.3786    172589.67    73.646621    73.646622    36.743329          120   -50398.679   -51684.386   -7292.4461   -1992.6939    -519.5011    -544.0597    73.646621    63.779845    36.743329   -36458.504   -308085.15 
      50    1501.1455    172538.94    73.639404    73.639405    36.739729          120   -38787.384   -39605.126   -12404.917    -629.0469    337.22355   -1016.6641    73.639404    63.773596    36.739729   -30265.809   -308342.81 
      60    1664.8846    172485.31    73.631775    73.631775    36.735922          120   -40168.468   -39411.375   -59720.428   -1423.3687   -1246.0675   -897.89816    73.631775    63.766988    36.735922   -46433.424   -308628.46 
      70     1754.627    172427.52     73.62355    73.623551    36.731819          120   -39327.487   -42169.049   -114441.17   -1923.1131   -1919.7893   -426.56372     73.62355    63.759866    36.731819   -65312.568   -308777.29 
      80    1652.4629    172363.95    73.614502    73.614502    36.727305          120   -42574.597   -46219.179   -148240.87    -1601.321   -1143.0702    -702.6607    73.614502    63.752029    36.727305   -79011.548   -308558.34 
      90    1491.5466    172293.47    73.604466    73.604467    36.722298          120   -40991.172   -41855.324   -152998.45   -699.74705   -2574.5589   -2238.2155    73.604466    63.743338    36.722298   -78614.982   -308224.67 
     100    1551.2563    172216.25    73.593468    73.593468    36.716811          120   -25627.195   -25131.423   -133061.09   -1484.1446   -1824.8378   -2743.1828    73.593468    63.733813    36.716811   -61273.235   -308315.48 
     110     1660.714    172133.86     73.58173     73.58173    36.710954          120   -9798.4373   -10160.618   -101991.35   -2072.8533   -837.60488   -3168.6528     73.58173    63.723648    36.710954   -40650.134    -308500.4 
     120    1688.7406    172048.25     73.56953    73.569531    36.704868          120    -1871.846   -2793.8391   -65111.259   -1267.5898    438.56576   -2102.0596     73.56953    63.713083    36.704868   -23258.981   -308528.34 
     130    1658.9194    171961.13    73.557111    73.557111    36.698671          120   -179.00719   -1392.3843   -36836.293    38.937472   -47.570967   -2336.9049    73.557111    63.702327    36.698671   -12802.561   -308445.76 
     140    1636.9902    171873.55     73.54462    73.544621     36.69244          120   -3211.3721   -5001.8017   -26721.588    24.029686   -1688.4309   -2626.6174     73.54462     63.69151     36.69244    -11644.92    -308378.7 
     150    1660.9841    171785.71    73.532089    73.532089    36.686188          120   -9435.2117   -11606.476   -39255.735   -1310.0179   -1821.0233   -967.96571    73.532089    63.680658    36.686188   -20099.141   -308399.49 
     160    1718.3993    171697.02    73.519432    73.519433    36.679873          120   -17412.782   -15628.844   -63645.438   -648.90099    -1315.158   -2559.2811    73.519432    63.669696    36.679873   -32229.021   -308485.34 
     170    1731.4878    171606.55    73.506517    73.506518     36.67343          120   -17442.568   -19320.986   -90294.526   -978.64033   -4556.8466   -3191.3749    73.506517    63.658512     36.67343   -42352.693   -308486.18 
     180    1708.7565    171513.57    73.493239    73.493239    36.666805          120   -17031.534   -19167.059   -104654.59    373.41745   -4584.1216   -3432.4895    73.493239    63.647012    36.666805   -46951.061   -308420.37 
     190    1694.4476    171417.84    73.479563    73.479563    36.659982          120   -16695.202   -14211.167   -106805.17    1056.7919   -5233.4798   -3150.7859    73.479563    63.635169    36.659982   -45903.847   -308370.21 
     200    1707.2748    171319.64    73.465529    73.465529     36.65298          120   -12981.887   -13032.344   -97279.241   -568.40314   -5747.9592    -3548.977    73.465529    63.623015     36.65298   -41097.824   -308370.81 
     210    1731.3945    171219.59    73.451226    73.451226    36.645844          120   -8360.9624   -10601.312   -83674.087    916.96052   -3600.4809   -3114.7604    73.451226    63.610628    36.645844   -34212.121   -308392.95 
     220    1741.0917    171118.51    73.436769     73.43677    36.638631          120   -5989.3838   -5595.4945   -68414.572   -748.54489   -2024.3136   -2443.6826    73.436769    63.598108    36.638631   -26666.484   -308388.04 
     230    1756.9419    171017.22    73.422276    73.422277      36.6314          120   -5350.6619   -4282.2613   -59765.667   -1438.4568   -2189.7669   -3014.3058    73.422276    63.585557      36.6314   -23132.863   -308393.58 
     240    1748.9965    170916.23     73.40782    73.407821    36.624188          120   -5636.1728    -7336.622   -55488.833   -1731.5563   -2998.4118   -4620.7625     73.40782    63.573038    36.624188   -22820.542   -308354.53 
     250    1756.5115    170815.74     73.39343    73.393431    36.617009          120   -7062.2739   -6391.3227   -60464.266   -970.07052   -1945.5033    -3894.777     73.39343    63.560576    36.617009   -24639.287   -308345.85 
     260    1800.1111    170715.72    73.379103    73.379104    36.609861          120   -7441.4333   -8266.5936   -68068.371   -814.27139   -3044.5413   -2675.0201    73.379103    63.548168    36.609861   -27925.466      -308407 
     270    1821.7917    170616.04    73.364818    73.364819    36.602734          120   -9266.7857   -10657.299   -77740.686   -318.91477   -2989.0525   -3544.3837    73.364818    63.535797    36.602734   -32554.924   -308427.26 
     280    1793.9968    170516.45    73.350541    73.350542    36.595611          120   -11971.813   -10322.027   -84347.312     -497.232   -3387.1689   -1332.8942    73.350541    63.523433    36.595611    -35547.05   -308352.18 
     290    1790.9537    170416.85    73.336257    73.336258    36.588485          120   -10343.382   -9229.3325   -84682.752   -1032.4393   -3420.8817   -1028.6105    73.336257    63.511063    36.588485   -34751.822    -308325.8 
     300    1825.6058    170317.46    73.321997    73.321997     36.58137          120   -6448.1869   -7816.8129   -78452.587   -2174.4243   -3410.2862   -2695.6127    73.321997    63.498712     36.58137   -30905.862   -308370.87 
     310    1835.7036    170218.71    73.307824    73.307825    36.574299          120   -5341.7594   -4263.1312   -69563.185   -2761.8169   -4089.1791   -1732.9692    73.307824    63.486439    36.574299   -26389.359   -308369.65 
     320    1837.1404    170121.13    73.293812    73.293813    36.567308          120   -2492.5914    -2567.334    -63462.18   -181.15728   -3816.3443   -1846.6465    73.293812    63.474304    36.567308   -22840.702   -308352.03 
     330    1830.3068    170025.08    73.280017    73.280017    36.560425          120   -903.78915    -1998.768   -57743.415   -246.46552   -2340.4418   -1697.3042    73.280017    63.462357    36.560425   -20215.324   -308319.75 
     340    1850.3036    169930.85    73.266477    73.266477     36.55367          120   -1860.0366   -3793.5957   -56073.165    189.77913    -1235.303   -381.48207    73.266477    63.450631     36.55367   -20575.599   -308338.64 
     350    1851.0801    169838.47    73.253197    73.253197    36.547044          120   -2159.2278   -4011.9567   -56698.045    287.94903   -640.52077    -2838.206    73.253197     63.43913    36.547044    -20956.41   -308320.26 
     360    1876.7413    169747.88     73.24017    73.240171    36.540545          120   -797.18308   -3241.1073   -65492.347   -1064.2644   -847.63385   -3161.9987     73.24017    63.427849    36.540545   -23176.879   -308350.43 
     370    1875.1522    169658.93    73.227375    73.227376    36.534162          120    1177.8482   -1757.3081   -68483.923     265.5059    -509.6596   -3034.2434    73.227375    63.416768    36.534162   -23021.128   -308329.49 
     380    1877.8706     169571.6    73.214809    73.214809    36.527892          120    480.72845    52.720505   -69244.824    192.83058   -2843.6021   -1960.2144    73.214809    63.405885    36.527892   -22903.792   -308317.24 
     390     1866.675    169485.88    73.202469     73.20247    36.521736          120   -832.71882    1267.5946   -68377.329    480.02901   -1099.1545   -1294.6923    73.202469    63.395199    36.521736   -22647.484   -308279.52 
     400    1886.8445    169401.78     73.19036     73.19036    36.515694          120    1701.0748    2464.8449   -63230.355    428.91014   -2120.1379   -472.19889     73.19036    63.384712    36.515694   -19688.145   -308302.18 
     410    1895.9273    169319.48    73.178506    73.178506     36.50978          120    4645.1841    5847.5145   -59862.128   -997.67076   -685.40635   -13.958608    73.178506    63.374446     36.50978   -16456.476    -308303.1 
     420      1890.49     169239.2    73.166938    73.166938    36.504009          120    7744.5792    4266.0619   -55408.671   -1316.9172   -1498.6845   -3563.4213    73.166938    63.364427    36.504009    -14466.01   -308277.45 
     430    1922.9378    169161.01    73.155668    73.155669    36.498386          120    6231.9516    3585.6528   -52858.285   -1046.5263   -2640.2277   -2413.2323    73.155668    63.354668    36.498386   -14346.894   -308325.53 
     440    1909.6399    169084.86     73.14469    73.144691    36.492909          120    5915.6383    5992.9095   -51072.754   -1220.9483   -2859.1772   -255.58968     73.14469     63.34516    36.492909   -13054.735   -308286.27 
     450    1938.7218    169010.74       73.134    73.134001    36.487576          120    7413.9337    6321.7264   -52738.273      366.446   -2254.1234   -1349.9149       73.134    63.335903    36.487576   -13000.871   -308330.71 
     460    1913.5837    168938.56    73.123588    73.123588    36.482381          120    8108.9392     8014.692    -54765.16   -144.61362   -1963.6114   -1868.6112    73.123588    63.326885    36.482381    -12880.51   -308272.15 
     470    1914.5587    168868.22    73.113438    73.113438    36.477317          120    9904.3137    8020.3605   -53167.179   -1566.5813   -1375.3429   -3220.1419    73.113438    63.318095    36.477317   -11747.502   -308263.37 
     480    1920.4899    168799.68    73.103545    73.103546    36.472381          120    11424.069    7819.7617   -53462.611   -1806.0412    800.12529   -1976.7124    73.103545    63.309528    36.472381    -11406.26   -308265.75 
     490    1941.2023    168732.84    73.093895    73.093895    36.467566          120    9719.7231    7314.9576   -60121.281   -2223.3295   -134.42223   -2216.0119    73.093895     63.30117    36.467566     -14362.2   -308298.91 
     500    1923.8727    168667.41    73.084445    73.084446    36.462852          120    9927.9694    9594.5766   -59552.472   -942.00943   -177.11024   -2637.7863    73.084445    63.292987    36.462852   -13343.309   -308259.33 
     510    1918.1547    168603.33    73.075189     73.07519    36.458234          120    7361.3305    10722.482   -54783.517   -512.68965   -1388.8803   -3262.1051    73.075189    63.284971    36.458234   -12233.235   -308242.39 
     520    1936.6115    168540.64     73.06613     73.06613    36.453714          120    9197.9236    15631.228   -49875.093   -1378.2664   -1945.8047   -2792.9217     73.06613    63.277125    36.453714   -8348.6471   -308273.77 
     530    1957.9249     168479.5    73.057294    73.057295    36.449306          120    11415.288    17019.203   -47656.123    107.11024   -4270.1395   -2426.8519    73.057294    63.269473    36.449306   -6407.2106   -308312.11 
     540    1932.7639    168420.02    73.048695    73.048696    36.445016          120    13761.528    16149.041   -48299.518   -519.12778   -4094.5492   -3285.4411    73.048695    63.262026    36.445016   -6129.6497   -308261.66 
     550    1950.1495    168362.09    73.040319    73.040319    36.440837          120    14587.796    14525.046   -50666.791   -542.85187   -3339.5087   -3385.6927    73.040319    63.254772    36.440837   -7184.6496   -308295.89 
     560     1935.598    168305.53    73.032139     73.03214    36.436756          120    13682.411     13859.73   -50802.949    555.42726   -1630.8797   -2903.2533    73.032139    63.247688    36.436756    -7753.603   -308270.55 
     570    1941.2761    168250.18    73.024133    73.024133    36.432761          120    14539.486    13464.186   -51322.726    340.91287    -1253.265    194.33946    73.024133    63.240755    36.432761   -7773.0177   -308285.86 
     580    1941.7285    168195.98    73.016291    73.016291    36.428849          120    17727.109    15868.204    -49440.93   -94.768189   -936.68653   -666.76901    73.016291    63.233963    36.428849   -5281.8726   -308292.76 
     590    1941.9727    168143.01    73.008625    73.008626    36.425024          120    14971.853    13891.428   -48368.692    1073.7292   -1992.5224   -2119.7949    73.008625    63.227325    36.425024   -6501.8035   -308299.43 
     600    1932.7902    168091.14    73.001116    73.001117    36.421278          120    14822.564    13731.206   -46187.045    1315.2005   -2816.1756   -1677.0769    73.001116    63.220822    36.421278   -5877.7583   -308290.26 
     610    1957.0717     168040.3    72.993755    72.993756    36.417606          120    15738.831    14805.253   -48411.081    1215.2826   -4767.8344   -3077.4029    72.993755    63.214447    36.417606   -5955.6655   -308347.26 
     620    1933.8358    167990.48    72.986541    72.986542    36.414006          120    18216.032    15386.644   -43648.846    796.64344   -2242.7666   -4685.0188    72.986541      63.2082    36.414006   -3348.7235   -308314.08 
     630    1924.8527    167941.79     72.97949    72.979491    36.410488          120    20546.889    16878.807   -42614.906   -412.43433   -1718.2109   -3561.8907     72.97949    63.202093    36.410488   -1729.7369   -308308.99 
     640    1907.2662    167894.29    72.972609     72.97261    36.407055          120    18088.615    17589.921   -42512.435    7.4201198    -2748.863   -1918.2636    72.972609    63.196134    36.407055   -2277.9663   -308288.64 
     650    1927.0774    167847.87    72.965882    72.965883    36.403699          120    15669.282    18357.515   -45128.441    367.60463    -4338.041   -5561.6802    72.965882    63.190308    36.403699   -3700.5479   -308340.23 
     660      1922.79    167802.39    72.959291    72.959292    36.400411          120    18675.435    18972.621   -42050.356    1435.2594   -3879.4467   -4947.1569    72.959291      63.1846    36.400411   -1467.4334   -308346.19 
     670     1938.822    167757.96    72.952852    72.952853    36.397199          120    20375.229    20293.108   -40234.747    2134.9197   -2366.9044   -3482.9383    72.952852    63.179024    36.397199    144.53022   -308390.75 
     680    1934.0499    167714.68    72.946577    72.946577    36.394068          120    21921.913    18632.276   -40969.526    1104.3291   -960.20661   -4333.3411    72.946577    63.173589    36.394068   -138.44565   -308396.13 
     690    1928.4697    167672.43    72.940452    72.940452    36.391012          120    19708.279    18883.163   -41822.596    1380.6691   -1139.6368   -4621.7945    72.940452    63.168285    36.391012   -1077.0514   -308400.24 
     700    1915.5959    167631.12    72.934461    72.934462    36.388023          120    19899.389    20131.122    -42946.27    1094.9387   -742.05045   -3735.6472    72.934461    63.163097    36.388023   -971.91947   -308390.61 
     710    1911.2309    167590.71      72.9286    72.928601    36.385099          120    20240.907     19807.98   -41952.489    76.789358   -1846.2777    -2213.545      72.9286    63.158021    36.385099   -634.53401    -308397.1 
     720    1909.4248    167551.16    72.922863    72.922864    36.382236          120    19443.704    19618.377   -45035.947    1071.8602    -1934.965   -2651.7149    72.922863    63.153053    36.382236   -1991.2887   -308408.83 
     730    1913.3607    167512.37    72.917234    72.917234    36.379428          120    18542.398    20205.626   -43412.314    2055.1122   -305.12327     -3266.73    72.917234    63.148178    36.379428    -1554.763   -308430.06 
     740    1924.4735     167474.3     72.91171     72.91171    36.376672          120     18890.93    18901.235   -43019.362    2439.9922   -4066.4173   -3717.4578     72.91171    63.143393    36.376672   -1742.3989   -308465.82 
     750    1901.8992    167436.92    72.906286    72.906286    36.373966          120    18424.803    20932.253   -42568.963    1816.0564   -4032.6061   -3178.6414    72.906286    63.138696    36.373966   -1070.6358   -308436.29 
     760    1903.1084    167400.25    72.900963    72.900964     36.37131          120    20703.265    22696.873   -44321.912    1803.8868   -4206.9385   -3812.0053    72.900963    63.134087     36.37131   -307.25809   -308451.61 
     770    1900.2463    167364.32    72.895746    72.895747    36.368707          120    20809.431    21088.895   -44241.441    2997.1698   -3127.8576   -3196.3938    72.895746    63.129569    36.368707   -781.03824   -308459.49 
     780    1884.4082    167329.06    72.890627    72.890628    36.366153          120    19651.754    18809.999    -45128.46    2151.7167     163.3338   -1896.6502    72.890627    63.125135    36.366153   -2222.2356   -308441.79 
     790    1889.6998    167294.36    72.885588    72.885588    36.363639          120    21459.327    19877.322   -44122.817    2210.5409   -128.85011   -3619.2541    72.885588    63.120771    36.363639   -928.72249   -308463.22 
     800     1876.647    167260.26    72.880635    72.880635    36.361168          120    22002.655    20715.459   -41986.426    3361.3085   -962.23981   -3753.2644    72.880635    63.116482    36.361168    243.89606   -308448.64 
     810    1887.5719    167226.85    72.875783    72.875783    36.358747          120    22872.605    21727.589   -40730.761    2131.5726    70.328289   -3123.5152    72.875783     63.11228    36.358747    1289.8109    -308479.5 
     820    1898.7693    167194.22    72.871042    72.871042    36.356382          120    22468.621    23564.644   -38427.783    797.30582   -625.66203   -3013.5082    72.871042    63.108174    36.356382    2535.1602   -308509.44 
     830    1879.3073    167162.43    72.866424    72.866424    36.354078          120    22837.258    25766.234   -36578.515    659.61215   -572.18058   -4045.6335    72.866424    63.104175    36.354078    4008.3258   -308478.69 
     840    1892.1209    167131.59    72.861942    72.861943    36.351842          120    24499.985    23947.908   -35955.025    495.27514   -593.54222   -4564.4788    72.861942    63.100293    36.351842    4164.2891   -308510.37 
     850    1926.8997     167101.7    72.857598    72.857598    36.349675          120    23401.899    24065.239   -34899.879   -15.923892   -1366.6849   -3704.8797    72.857598    63.096531    36.349675    4189.0865   -308583.91 
     860    1878.1736    167072.73    72.853388    72.853388    36.347574          120    24681.035    26058.808   -35539.688    1968.1662   -1864.5099   -1741.1704    72.853388    63.092885    36.347574    5066.7182   -308497.22 
     870    1882.9362    167044.69    72.849312    72.849313    36.345541          120    25229.228    25373.118   -38134.323    1454.6371   -1164.0657   -2081.8138    72.849312    63.089356    36.345541    4156.0078   -308512.76 
     880    1879.0555    167017.53    72.845363    72.845363     36.34357          120    26518.587    27735.269   -38645.781    860.55598   -571.21072   -2512.1459    72.845363    63.085935     36.34357    5202.6918   -308511.48 
     890    1879.4015     166991.3     72.84155     72.84155    36.341668          120    29452.657    28875.925   -35141.598    298.60037    31.427639   -2738.9477     72.84155    63.082633    36.341668    7728.9945   -308517.14 
     900    1882.2455    166966.17    72.837895    72.837895    36.339845          120    29042.818    28341.758   -34430.621    692.15499   -150.81562   -3861.2394    72.837895    63.079468    36.339845    7651.3184   -308526.77 
     910    1859.9271    166942.15    72.834402    72.834402    36.338102          120    27306.379    27852.405   -30389.836   -713.70019   -445.07323   -2681.9118    72.834402    63.076443    36.338102    8256.3162   -308488.16 
     920    1891.2959    166919.23    72.831069    72.831069    36.336439          120    25061.139    27348.098   -32355.513    217.32116   -2147.6554   -895.42183    72.831069    63.073556    36.336439    6684.5746   -308550.97 
     930    1891.3763    166897.27    72.827875    72.827875    36.334845          120    24376.678    25119.941   -36487.459    405.76938   -1700.5887    -1867.244    72.827875     63.07079    36.334845    4336.3864   -308552.66 
     940    1894.9899    166876.06     72.82479     72.82479    36.333306          120    25768.928    21013.888   -37161.309    245.63286   -1309.3412   -1736.6791     72.82479    63.068119    36.333306    3207.1691   -308560.72 
     950    1883.8152    166855.48    72.821796    72.821797    36.331813          120    24553.492     21406.13   -37008.537    488.27964   -60.212808   -2417.5065    72.821796    63.065526    36.331813    2983.6949   -308539.93 
     960    1890.1061    166835.52    72.818892    72.818893    36.330364          120    26495.099    22618.165   -35217.184    900.43164   -471.75199   -2400.9284    72.818892    63.063011    36.330364    4632.0266   -308551.99 
     970    1883.5467    166816.28    72.816093    72.816093    36.328967          120    24956.832    27802.505   -35406.815    2234.4681   -164.58421   -2838.9796    72.816093    63.060587    36.328967    5784.1739   -308539.59 
     980    1877.8495    166797.85    72.813411    72.813412    36.327629          120    26004.625     29165.31   -34263.078     1460.847   -1641.0493   -2404.5373    72.813411    63.058264    36.327629    6968.9526   -308527.62 
     990    1900.4542    166780.27    72.810853    72.810853    36.326353          120    24574.933    27811.593   -36628.701    1288.7843   -1929.1845   -1213.2281    72.810853    63.056049    36.326353    5252.6084    -308569.7 
    1000     1877.959    166763.45    72.808406    72.808406    36.325132          120    27677.298     27816.64   -36042.356    883.65728   -1923.7849   -1689.6372    72.808406     63.05393    36.325132     6483.861   -308524.75 
Loop time of 445.368 on 1 procs for 1000 steps with 14848 atoms

Performance: 0.194 ns/day, 123.713 hours/ns, 2.245 timesteps/s
100.0% CPU use with 1 MPI tasks x no OpenMP threads

MPI task timing breakdown:
Section |  min time  |  avg time  |  max time  |%varavg| %total
---------------------------------------------------------------
Pair    | 310.55     | 310.55     | 310.55     |   0.0 | 69.73
Bond    | 0.00058436 | 0.00058436 | 0.00058436 |   0.0 |  0.00
Kspace  | 14.983     | 14.983     | 14.983     |   0.0 |  3.36
Neigh   | 110.4      | 110.4      | 110.4      |   0.0 | 24.79
Comm    | 0.72267    | 0.72267    | 0.72267    |   0.0 |  0.16
Output  | 0.014012   | 0.014012   | 0.014012   |   0.0 |  0.00
Modify  | 8.5013     | 8.5013     | 8.5013     |   0.0 |  1.91
Other   |            | 0.1936     |            |       |  0.04

Nlocal:    14848 ave 14848 max 14848 min
Histogram: 1 0 0 0 0 0 0 0 0 0
Nghost:    46288 ave 46288 max 46288 min
Histogram: 1 0 0 0 0 0 0 0 0 0
Neighs:    9.86638e+06 ave 9.86638e+06 max 9.86638e+06 min
Histogram: 1 0 0 0 0 0 0 0 0 0

Total # of neighbors = 9866381
Ave neighs/atom = 664.492
Ave special neighs/atom = 0
Neighbor list builds = 325
Dangerous builds = 0
PPPM initialization ...
  using 12-bit tables for long-range coulomb (../kspace.cpp:321)
  G vector (1/distance) = 0.202256
  grid = 36 50 24
  stencil order = 5
  estimated absolute RMS force accuracy = 0.00101956
  estimated relative force accuracy = 7.08048e-05
  using double precision FFTs
  3d grid and FFT values/proc = 65395 43200
Setting up Verlet run ...
  Unit style    : metal
  Current step  : 0
  Time step     : 0.001
Per MPI rank memory allocation (min/avg/max) = 149.2 | 149.2 | 149.2 Mbytes
Step Temp Volume Cella Cellb Cellc CellGamma Pxx Pyy Pzz Pxy Pxz Pyz Lx Ly Lz Press PotEng 
       0     1877.959    166763.45    72.808406    72.808406    36.325132          120    27682.775    27822.087   -36042.379    883.71872   -1923.7574   -1689.6236    72.808406     63.05393    36.325132    6487.4943   -308524.69 
  100000    1903.8455    169578.07     73.21574    73.215741    36.528357          120    12733.097    19884.976   -41358.045   -106.72833   -1686.1488    248.21314     73.21574    63.406691    36.528357   -2913.3239   -308644.34 
Loop time of 43527 on 1 procs for 100000 steps with 14848 atoms

Performance: 0.198 ns/day, 120.908 hours/ns, 2.297 timesteps/s
100.0% CPU use with 1 MPI tasks x no OpenMP threads

MPI task timing breakdown:
Section |  min time  |  avg time  |  max time  |%varavg| %total
---------------------------------------------------------------
Pair    | 29879      | 29879      | 29879      |   0.0 | 68.64
Bond    | 0.057525   | 0.057525   | 0.057525   |   0.0 |  0.00
Kspace  | 1479.5     | 1479.5     | 1479.5     |   0.0 |  3.40
Neigh   | 11232      | 11232      | 11232      |   0.0 | 25.80
Comm    | 72.55      | 72.55      | 72.55      |   0.0 |  0.17
Output  | 0.00012898 | 0.00012898 | 0.00012898 |   0.0 |  0.00
Modify  | 845.14     | 845.14     | 845.14     |   0.0 |  1.94
Other   |            | 19.15      |            |       |  0.04

Nlocal:    14848 ave 14848 max 14848 min
Histogram: 1 0 0 0 0 0 0 0 0 0
Nghost:    46031 ave 46031 max 46031 min
Histogram: 1 0 0 0 0 0 0 0 0 0
Neighs:    9.70199e+06 ave 9.70199e+06 max 9.70199e+06 min
Histogram: 1 0 0 0 0 0 0 0 0 0

Total # of neighbors = 9701994
Ave neighs/atom = 653.421
Ave special neighs/atom = 0
Neighbor list builds = 33083
Dangerous builds = 0
 
All done!
Total wall time: 12:12:53
