LAMMPS (16 Mar 2018)
Reading data file ...
  triclinic box = (0 0 0) to (9.208 7.97436 18.376) with tilt (-4.604 0 0)
  1 by 1 by 1 MPI processor grid
  reading atoms ...
  116 atoms
Finding 1-2 1-3 1-4 neighbors ...
  special bond factors lj:   0          0          0         
  special bond factors coul: 0          0          0         
  0 = max # of 1-2 neighbors
  0 = max # of 1-3 neighbors
  0 = max # of 1-4 neighbors
  1 = max # of special neighbors
Replicating atoms ...
  triclinic box = (0 0 0) to (73.664 63.7949 36.752) with tilt (-36.832 0 0)
  1 by 1 by 1 MPI processor grid
  14848 atoms
Finding 1-2 1-3 1-4 neighbors ...
  special bond factors lj:   0          0          0         
  special bond factors coul: 0          0          0         
  0 = max # of 1-2 neighbors
  0 = max # of 1-3 neighbors
  0 = max # of 1-4 neighbors
  1 = max # of special neighbors
  Time spent = 0.00494194 secs
PPPM initialization ...
WARNING: System is not charge neutral, net charge = -0.2048 (../kspace.cpp:302)
  using 12-bit tables for long-range coulomb (../kspace.cpp:321)
  G vector (1/distance) = 0.201681
  grid = 36 50 24
  stencil order = 5
  estimated absolute RMS force accuracy = 0.00105653
  estimated relative force accuracy = 7.33721e-05
  using double precision FFTs
  3d grid and FFT values/proc = 65395 43200
Neighbor list info ...
  update every 1 steps, delay 0 steps, check yes
  max neighbors/atom: 2000, page size: 100000
  master list distance cutoff = 15.3
  ghost atom cutoff = 15.3
  binsize = 7.65, bins = 15 9 5
  3 neighbor lists, perpetual/occasional/extra = 3 0 0
  (1) pair morse, perpetual
      attributes: half, newton on
      pair build: half/bin/newton/tri
      stencil: half/bin/3d/newton/tri
      bin: standard
  (2) pair buck, perpetual, copy from (1)
      attributes: half, newton on
      pair build: copy
      stencil: none
      bin: none
  (3) pair lj/cut/coul/long, perpetual, copy from (1)
      attributes: half, newton on
      pair build: copy
      stencil: none
      bin: none
Setting up Verlet run ...
  Unit style    : metal
  Current step  : 0
  Time step     : 0.001
Per MPI rank memory allocation (min/avg/max) = 145.7 | 145.7 | 145.7 Mbytes
Step Temp Volume Cella Cellb Cellc CellGamma Pxx Pyy Pzz Pxy Pxz Pyz Lx Ly Lz Press PotEng 
       0          500    172711.88       73.664    73.664001       36.752          120   -205539.11    -205624.9   -276598.83    40.668945   -12.715189    17.004727       73.664    63.794896       36.752   -229254.28   -309191.56 
      10    454.37985    172672.15    73.658351    73.658351    36.749182          120    -204176.6   -204263.16   -251010.16    138.61234   -34.835836   -224.60186    73.658351    63.790004    36.749182   -219816.64      -309126 
      20    741.43806    172556.16    73.641855    73.641855    36.740951          120   -196581.93   -196328.15   -189797.06    52.466084   -280.83031   -493.53214    73.641855    63.775717    36.740951   -194235.71   -309698.64 
      30    789.72967    172373.79    73.615902    73.615902    36.728003          120   -161433.87   -161260.18   -110481.21   -175.44614   -854.06224   -529.20177    73.615902    63.753242    36.728003   -144391.75   -309825.58 
      40    567.89346    172143.68    73.583129     73.58313    36.711653          120   -111387.06   -111872.85   -30494.838   -970.59313    -1165.026   -533.98255    73.583129     63.72486    36.711653   -84584.917   -309421.21 
      50    667.07104    171887.95    73.546674    73.546675    36.693464          120   -75939.626   -76943.746   -6230.0642   -590.53452   -1022.7406   -647.20845    73.546674    63.693289    36.693464   -53037.812   -309620.19 
      60    932.60454     171620.5    73.508509     73.50851    36.674423          120   -61413.884   -61092.987   -50511.351   -956.51171   -1888.4932   -567.12009    73.508509    63.660237    36.674423   -57672.741      -310146 
      70    1077.2251    171344.21    73.469041    73.469042    36.654732          120   -53408.488   -53629.447   -114313.98     -1911.99   -2474.4791   -780.03847    73.469041    63.626057    36.654732   -73783.973   -310464.07 
      80    950.07513    171057.98    73.428108    73.428109     36.63431          120   -49605.808   -51296.482   -159256.99   -1937.9987   -2506.9308   -35.577942    73.428108    63.590608     36.63431   -86719.759   -310266.92 
      90    707.65146    170762.13    73.385752    73.385753    36.613178          120   -46028.539    -46679.39   -171679.51   -2059.9519   -2975.2011   -1000.8715    73.385752    63.553926    36.613178   -88129.147   -309840.85 
     100    725.88531    170461.31    73.342634    73.342635    36.591666          120   -29835.187   -30019.038   -150442.26   -1909.4903   -2697.8677   -1321.3262    73.342634    63.516585    36.591666   -70098.827   -309909.44 
     110    885.54166    170165.53    73.300189     73.30019     36.57049          120   -9860.8539   -10428.019   -109843.62   -1922.0589   -1133.8139   -1705.8206    73.300189    63.479827     36.57049   -43377.497   -310253.53 
     120    906.90656    169886.05    73.260037    73.260038    36.550457          120    771.31038    671.59254   -62963.237   -1856.9685   -653.59516   -1718.8977    73.260037    63.445054    36.550457   -20506.778   -310335.49 
     130    815.34785    169630.69    73.223312    73.223312    36.532134          120    761.06045    1866.9837   -26027.874    -1494.492   -840.72324   -1848.9965    73.223312    63.413249    36.532134   -7799.9433   -310196.75 
     140    766.46562    169401.95    73.190385    73.190385    36.515707          120   -3368.4409   -3465.2173   -12543.229   -856.74232   -859.10191   -1983.8368    73.190385    63.384733    36.515707   -6458.9624   -310133.45 
     150    803.58551    169197.35    73.160907    73.160908       36.501          120   -10733.293   -9918.2875   -31107.925   -1742.3134   -460.00006   -1698.2984    73.160907    63.359205       36.501   -17253.169   -310235.39 
     160    864.71218    169010.42    73.133953    73.133954    36.487552          120   -19628.577   -18754.703   -63414.438   -1459.9928   -1326.8888   -2213.8053    73.133953    63.335862    36.487552   -33932.573   -310390.84 
     170    864.64177    168833.36    73.108406    73.108407    36.474806          120   -24113.286    -23055.13   -92620.821    -1012.335   -1951.8396   -2093.7615    73.108406    63.313738    36.474806   -46596.412   -310432.53 
     180    797.34921    168660.22    73.083407    73.083407    36.462334          120   -23009.543   -21152.396   -111384.21    -1166.751   -2406.5671   -2198.5894    73.083407    63.292087    36.462334   -51848.717   -310344.94 
     190    765.70465    168487.93    73.058512    73.058512    36.449914          120    -19175.35   -17272.245   -112533.05   -736.37388   -2499.7775   -2200.8447    73.058512    63.270528    36.449914   -49660.214   -310322.21 
     200    794.60771    168316.05    73.033661    73.033662    36.437515          120   -14861.968   -14422.052   -96860.706   -1205.6766   -2063.9917   -2051.1787    73.033661    63.249006    36.437515   -42048.242   -310414.78 
     210    814.54352    168145.96    73.009051    73.009052    36.425237          120   -10367.968    -10347.44   -75585.918   -1495.1719   -1923.3512   -1680.9786    73.009051    63.227694    36.425237   -32100.442      -310491 
     220    797.72584    167979.72    72.984982    72.984983    36.413229          120    -7853.626   -6019.0224   -57457.878   -1540.5051   -1212.8706   -2689.4181    72.984982     63.20685    36.413229   -23776.842   -310496.07 
     230      778.166    167818.82    72.961673    72.961673    36.401599          120   -7742.7103   -6251.7733   -48191.603   -1034.8912   -792.39589   -3286.7275    72.961673    63.186663    36.401599   -20728.696   -310493.39 
     240    769.84668    167663.21    72.939114    72.939115    36.390344          120   -10394.968   -8314.5372   -49237.432   -644.41844   -1884.5681   -3662.7838    72.939114    63.167127    36.390344   -22648.979   -310512.79 
     250    782.10719    167511.36    72.917088    72.917088    36.379355          120   -13550.608   -11821.138   -60575.976   -427.40011   -2491.8601    -3259.091    72.917088    63.148051    36.379355   -28649.241   -310572.02 
     260     791.5564    167360.84    72.895241    72.895241    36.368455          120   -15083.483    -14873.39   -73425.602   -625.76765   -2382.4241   -3434.6203    72.895241    63.129131    36.368455   -34460.825   -310628.53 
     270    772.78501    167209.47    72.873258    72.873258    36.357488          120   -14334.057    -16191.89   -84011.299   -147.23915   -2236.1301   -3060.6433    72.873258    63.110093    36.357488   -38179.082   -310630.88 
     280    751.58723    167055.99    72.850954    72.850954     36.34636          120   -13939.196   -13838.735   -86710.589    -165.6766   -1781.8735   -1671.3036    72.850954    63.090777     36.34636    -38162.84   -310627.56 
     290    747.43075     166900.5    72.828345    72.828345     36.33508          120   -10152.791   -7852.3229   -80084.139    244.99456   -1218.4078   -2080.5499    72.828345    63.071197     36.33508   -32696.418   -310655.15 
     300    752.57759    166744.71    72.805678    72.805679    36.323771          120   -6184.8864   -3497.0753   -68891.087    531.85879   -1486.8407   -1773.5452    72.805678    63.051568    36.323771   -26191.016   -310699.77 
     310    745.19662    166590.74    72.783262    72.783263    36.312588          120   -3034.4358   -1585.0861   -56562.318    87.012223   -220.73694   -2257.1687    72.783262    63.032155    36.312588   -20393.947   -310719.57 
     320    731.84943    166440.31    72.761347    72.761348    36.301654          120   -1461.5318   -1255.4651   -47767.987    350.06178   -310.92179   -1545.1078    72.761347    63.013176    36.301654   -16828.328    -310727.6 
     330    725.03065    166294.37    72.740075    72.740076    36.291041          120   -1506.4901   -1010.7413   -43824.746    226.93432   -594.43707   -2025.0674    72.740075    62.994754    36.291041   -15447.326   -310747.18 
     340    722.59102    166153.13    72.719475    72.719476    36.280763          120   -3251.7235   -705.00483   -48196.183   -124.48851   -710.79076   -1931.9354    72.719475    62.976914    36.280763   -17384.304    -310774.7 
     350    724.10248    166015.77     72.69943    72.699431    36.270763          120    -4338.628   -1568.1018   -58153.473   -565.82282   -1139.5893   -1730.0729     72.69943    62.959554    36.270763   -21353.401   -310810.06 
     360     708.3328    165880.97    72.679748    72.679749    36.260943          120   -3871.0347   -1446.3521    -66566.38   -789.77993   -1178.1347   -1729.3711    72.679748    62.942509    36.260943   -23961.256   -310812.03 
     370    699.33203    165747.85    72.660301    72.660302    36.251241          120   -2936.1032   -587.73186   -69241.299   -722.85017   -3397.3432   -2121.9708    72.660301    62.925667    36.251241   -24255.045   -310825.88 
     380    697.96584    165616.35    72.641081    72.641082    36.241652          120    -236.3409    2108.7557   -64183.755   -977.34839   -3267.7828   -2676.0084    72.641081    62.909022    36.241652   -20770.447   -310854.56 
     390    694.45974    165487.43    72.622228    72.622228    36.232245          120    2482.7463    4964.8719   -57689.991   -1276.7303   -2587.1645   -2213.5176    72.622228    62.892695    36.232245   -16747.458   -310877.46 
     400     683.7988    165362.21    72.603906    72.603907    36.223104          120    5070.9801    6016.2417   -50417.488   -991.07306   -2206.5226   -2027.1179    72.603906    62.876828    36.223104   -13110.089   -310886.46 
     410    683.33367    165241.62    72.586253    72.586253    36.214297          120    5757.2997    7249.2204   -43479.579   -828.06289   -1345.6972   -2597.5173    72.586253    62.861539    36.214297   -10157.686   -310914.08 
     420    679.79207    165126.25    72.569356    72.569356    36.205867          120    6244.1536    8616.4296   -41073.569    -614.2825   -1928.3087   -1988.9389    72.569356    62.846906    36.205867   -8737.6618   -310935.92 
     430    669.98621    165016.18    72.553227    72.553228     36.19782          120    6748.4447    7695.0367   -43089.116   -661.71619   -1896.2694   -2493.4174    72.553227    62.832939     36.19782   -9548.5448   -310944.72 
     440    661.69133    164910.77    72.537776    72.537776    36.190111          120    5897.6237    5624.9775   -48178.863   -140.46784   -1978.2565   -1231.4625    72.537776    62.819557    36.190111   -12218.754   -310956.57 
     450    655.95436    164808.95    72.522844    72.522845    36.182661          120    5561.6625     5568.429   -53225.771   -140.96108   -1798.9828   -1087.0269    72.522844    62.806626    36.182661   -14031.893    -310972.3 
     460    647.25962    164709.94    72.508318    72.508318    36.175414          120    7025.6355    7656.4275    -54923.19    763.63375   -1488.4011    -1766.064    72.508318    62.794046    36.175414   -13413.709   -310982.09 
     470    638.02677    164613.64    72.494185    72.494185    36.168363          120    8742.9279    9020.4261   -53302.596    1412.8128   -2134.9089   -717.82738    72.494185    62.781806    36.168363   -11846.414   -310989.98 
     480    642.40977    164520.35    72.480488    72.480488    36.161529          120    10778.353    10155.276   -49099.166    782.88824   -1751.0185   -1487.2583    72.480488    62.769944    36.161529   -9388.5121   -311022.91 
     490    634.06682    164430.57      72.4673      72.4673     36.15495          120    10958.373    13174.294   -43371.648    396.45257   -2505.0879   -1766.4466      72.4673    62.758523     36.15495   -6412.9937    -311030.9 
     500    620.78363    164344.88     72.45471    72.454711    36.148668          120    12841.213    14986.826   -38493.255    223.71189   -2192.2266   -2679.1027     72.45471     62.74762    36.148668   -3555.0722   -311028.51 
     510    625.59272     164263.8    72.442793    72.442793    36.142723          120    14404.622    14930.026   -36568.036    691.61855   -2055.2108   -1936.9584    72.442793    62.737299    36.142723   -2411.1294   -311061.64 
     520    620.97063    164187.33     72.43155     72.43155    36.137113          120    13968.154    15009.089   -36787.973    1646.0904   -1009.1787   -1586.5525     72.43155    62.727563    36.137113   -2603.5766   -311075.26 
     530    620.85703    164115.06    72.420921    72.420921     36.13181          120     13838.93    15021.746   -39845.175     2073.253   -84.853909   -1111.2404    72.420921    62.718358     36.13181      -3661.5   -311097.57 
     540    609.81703    164046.36    72.410814    72.410815    36.126768          120     13795.48    15782.398   -44374.197    2061.0213   -802.35991   -377.26854    72.410814    62.709605    36.126768   -4932.1064   -311098.48 
     550    611.11754    163980.58    72.401133    72.401134    36.121938          120    13292.304    16290.893   -45636.649    1598.6188   -772.19398   -1236.9175    72.401133    62.701221    36.121938   -5351.1508   -311123.12 
     560    599.57969    163917.36    72.391829    72.391829    36.117296          120    14874.255    16445.596   -43245.587    251.24043    531.64353   -1280.1243    72.391829    62.693163    36.117296    -3975.245   -311122.06 
     570    595.34404    163856.91    72.382928    72.382929    36.112855          120    16425.729    18393.889    -40877.93    450.55434    311.16444   -1543.4419    72.382928    62.685455    36.112855   -2019.4374   -311134.79 
     580    593.96516    163799.54     72.37448    72.374481     36.10864          120    17244.588    17883.094   -37693.291    836.28868   -601.42131   -1984.2426     72.37448    62.678139     36.10864   -855.20294   -311153.18 
     590    585.20587     163745.4    72.366504    72.366505    36.104661          120     17662.95    17570.769   -35621.431    752.99067    -759.5524    -1382.856    72.366504    62.671232    36.104661   -129.23744   -311156.26 
     600    577.21633    163694.46       72.359    72.359001    36.100917          120    17959.959     18169.99   -34686.074    1755.3077   -670.53953   -710.56431       72.359    62.664733    36.100917    481.29142   -311159.43 
     610    582.32517    163646.67    72.351958    72.351958    36.097404          120    18236.971    18825.154   -34611.376    2045.6168   -218.08666   -876.14265    72.351958    62.658634    36.097404    816.91629      -311188 
     620    578.52031    163601.89    72.345357    72.345357    36.094111          120    18420.809    18501.213   -36212.492    838.57374    206.41834   -950.76153    72.345357    62.652918    36.094111    236.50992   -311199.37 
     630    574.07792    163559.72    72.339141    72.339141    36.091009          120    18506.153    17548.136   -38482.586    97.334848   -10.713744   -1258.5676    72.339141    62.647534    36.091009   -809.43225   -311208.94 
     640    569.39097    163519.71    72.333241    72.333242    36.088066          120    19401.776    17697.922    -39541.13    483.52762   -479.32015   -709.38833    72.333241    62.642425    36.088066   -813.81047   -311218.13 
     650     562.7556    163481.71    72.327638    72.327638     36.08527          120    19810.156    19002.453   -39337.592     1004.274   -608.11498   -701.97517    72.327638    62.637572     36.08527   -174.99445   -311223.16 
     660    561.37358    163445.73    72.322332    72.322333    36.082623          120    18848.169    19710.802   -37659.571    1281.3538   -1124.9193   -1510.5612    72.322332    62.632978    36.082623     299.7998   -311237.29 
     670    558.55022    163411.82    72.317331    72.317331    36.080128          120    19183.136    19896.745   -35199.185    656.94519     -882.182   -1546.7528    72.317331    62.628646    36.080128    1293.5656   -311248.29 
     680    552.78734    163380.11    72.312652    72.312653    36.077794          120    19882.263    20748.273   -34559.872    651.12279   -1223.4373   -966.71951    72.312652    62.624595    36.077794    2023.5543   -311253.84 
     690    551.98234    163350.67    72.308308    72.308308    36.075626          120    19547.184    20346.125   -34120.218    541.57917   -1239.5966   -623.94034    72.308308    62.620832    36.075626    1924.3633   -311268.14 
     700    543.06678    163323.37     72.30428     72.30428    36.073617          120    19880.809    20097.943   -32915.691    816.65309   -758.87427   -1270.3203     72.30428    62.617344    36.073617    2354.3536   -311265.63 
     710    544.77773    163298.16    72.300559     72.30056     36.07176          120    19544.728    20776.233   -34128.278    745.81926    -321.1629   -1790.9455    72.300559    62.614121     36.07176    2064.2279   -311283.46 
     720     540.3135    163274.87    72.297122    72.297123    36.070046          120    19859.721    21090.202   -34664.343    1237.3592   -565.25909   -1384.7733    72.297122    62.611145    36.070046    2095.1931   -311290.25 
     730    534.83679    163253.39    72.293951    72.293952    36.068463          120    20201.004    20783.205   -35258.539    1476.5726    456.92375    -1037.693    72.293951    62.608399    36.068463    1908.5567   -311293.72 
     740    530.73138    163233.55    72.291022    72.291023    36.067002          120    20265.519    20474.551   -34795.745    1475.4829    747.34791   -1752.3613    72.291022    62.605862    36.067002    1981.4418   -311298.62 
     750    531.28251    163215.27    72.288325    72.288325    36.065656          120    20171.566     20939.22   -34677.562     1500.313    955.70649    -871.9929    72.288325    62.603526    36.065656     2144.408   -311313.08 
     760    526.75966    163198.54    72.285854    72.285854    36.064424          120      20857.1    20591.744   -33812.155    1420.4925    1608.0389   -678.86538    72.285854    62.601386    36.064424    2545.5632    -311316.7 
     770    525.66224    163183.35    72.283611    72.283612    36.063305          120     20549.33    20576.544   -32811.532     517.9126    694.90849   -671.89392    72.283611    62.599444    36.063305     2771.447   -311327.59 
     780    522.78868    163169.73    72.281601    72.281601    36.062302          120    22280.155    20304.615   -31650.958   -294.04431   -28.020395   -563.34863    72.281601    62.597703    36.062302    3644.6039   -311333.91 
     790     516.6626    163157.87    72.279849    72.279849    36.061427          120    22771.821    21459.425   -29732.281    762.00132   -627.15122   -1172.7746    72.279849    62.596186    36.061427    4832.9884   -311333.66 
     800    517.46226    163147.97    72.278387    72.278388    36.060698          120    24150.778    21918.738   -31211.144    650.79073   -934.69869   -1763.5523    72.278387     62.59492    36.060698    4952.7909   -311346.19 
     810    521.51915    163140.02    72.277213    72.277214    36.060113          120    23999.279    22542.316   -31755.078    674.50285   -684.91678   -2100.7966    72.277213    62.593903    36.060113    4928.8389    -311364.8 
     820    516.81748    163133.91    72.276311    72.276311    36.059663          120    23527.501    22480.476   -32919.425    515.40008    107.94413    -1819.381    72.276311    62.593122    36.059663    4362.8507   -311366.54 
     830    515.06286    163129.38    72.275641    72.275642    36.059328          120    21897.091    21909.474   -34317.461    197.45062   -388.19041   -2345.6012    72.275641    62.592542    36.059328    3163.0347    -311373.3 
     840    502.75471    163126.07    72.275153    72.275153    36.059085          120    22629.864    23101.066   -33804.938   -161.10307   -153.03711   -899.04385    72.275153    62.592119    36.059085    3975.3307   -311359.85 
     850    508.89723    163124.11    72.274863    72.274864     36.05894          120    23226.652    23848.044   -31788.928    380.33928   -170.54148   -960.41445    72.274863    62.591868     36.05894     5095.256   -311381.35 
     860    500.56958    163123.78    72.274815    72.274816    36.058916          120    22877.998    25010.476   -30033.825    809.46956    714.54331   -1216.2243    72.274815    62.591827    36.058916    5951.5497    -311374.8 
     870     500.1072    163125.28    72.275036    72.275036    36.059026          120    23411.952    24009.157   -29734.636    1353.2446    534.83035   -1720.3706    72.275036    62.592018    36.059026     5895.491   -311382.19 
     880    502.20135    163128.49     72.27551    72.275511    36.059263          120    23003.637    22752.224   -30387.327    1352.7029    -230.2235   -1184.5677     72.27551    62.592428    36.059263    5122.8448   -311394.36 
     890    498.30093    163133.12    72.276195    72.276195    36.059604          120    21755.975    21545.756   -31541.595    894.11367   -12.726148   -880.41822    72.276195    62.593021    36.059604    3920.0453   -311394.91 
     900    496.43052    163138.77    72.277028    72.277028     36.06002          120    21080.161    20644.737   -32921.469    625.99735    506.68513   -777.07076    72.277028    62.593743     36.06002    2934.4762   -311398.48 
     910     494.7369    163145.09    72.277961    72.277962    36.060486          120    21102.117     20874.67   -33680.158     1215.301    1257.5979   -559.38896    72.277961    62.594551    36.060486    2765.5425   -311402.13 
     920    495.89542    163152.01    72.278984    72.278985    36.060996          120    21603.849    21434.484   -32765.905    1395.7636    241.62822   -996.04526    72.278984    62.595437    36.060996    3424.1426   -311410.86 
     930    492.35652    163159.73    72.280124    72.280124    36.061565          120    22742.985    22325.794   -31483.737    1032.7183   -426.33771   -1600.6149    72.280124    62.596424    36.061565    4528.3474   -311409.71 
     940     491.8011    163168.49    72.281418    72.281418     36.06221          120     23234.16    21989.799   -31106.567     1139.563   -726.85776   -827.13076    72.281418    62.597544     36.06221    4705.7974   -311414.22 
     950      493.018    163178.33    72.282871    72.282871    36.062935          120    22423.868    22034.577   -31629.918    1034.4154   -340.01578    63.056961    72.282871    62.598803    36.062935    4276.1756    -311422.3 
     960     489.7575    163189.11    72.284461    72.284462    36.063729          120    22009.841    21991.563   -31768.828    870.84276   -1447.5822    244.93326    72.284461     62.60018    36.063729    4077.5252   -311421.09 
     970    485.59419    163200.71    72.286174    72.286175    36.064584          120     21176.33    22280.056   -31616.098    963.04524   -1281.8581   -286.02746    72.286174    62.601664    36.064584    3946.7626   -311417.16 
     980    487.30839    163213.08    72.288001    72.288002    36.065495          120    20510.593    22409.014   -31879.826    1313.7885   -360.39463   -550.12498    72.288001    62.603246    36.065495    3679.9271    -311423.7 
     990    488.50427    163226.11    72.289924    72.289925    36.066454          120    19765.488    22207.521   -32665.102    1016.2993     706.3798   -171.57289    72.289924    62.604912    36.066454    3102.6357   -311429.54 
    1000    486.14946     163239.6    72.291916    72.291916    36.067448          120    20092.846    21528.072   -33905.199    814.25115    463.78844   -261.47606    72.291916    62.606636    36.067448    2571.9062   -311427.45 
Loop time of 401.537 on 1 procs for 1000 steps with 14848 atoms

Performance: 0.215 ns/day, 111.538 hours/ns, 2.490 timesteps/s
100.0% CPU use with 1 MPI tasks x no OpenMP threads

MPI task timing breakdown:
Section |  min time  |  avg time  |  max time  |%varavg| %total
---------------------------------------------------------------
Pair    | 311.64     | 311.64     | 311.64     |   0.0 | 77.61
Bond    | 0.00055909 | 0.00055909 | 0.00055909 |   0.0 |  0.00
Kspace  | 14.744     | 14.744     | 14.744     |   0.0 |  3.67
Neigh   | 65.79      | 65.79      | 65.79      |   0.0 | 16.38
Comm    | 0.56884    | 0.56884    | 0.56884    |   0.0 |  0.14
Output  | 0.013818   | 0.013818   | 0.013818   |   0.0 |  0.00
Modify  | 8.5949     | 8.5949     | 8.5949     |   0.0 |  2.14
Other   |            | 0.1825     |            |       |  0.05

Nlocal:    14848 ave 14848 max 14848 min
Histogram: 1 0 0 0 0 0 0 0 0 0
Nghost:    46874 ave 46874 max 46874 min
Histogram: 1 0 0 0 0 0 0 0 0 0
Neighs:    1.00824e+07 ave 1.00824e+07 max 1.00824e+07 min
Histogram: 1 0 0 0 0 0 0 0 0 0

Total # of neighbors = 10082402
Ave neighs/atom = 679.041
Ave special neighs/atom = 0
Neighbor list builds = 195
Dangerous builds = 0
PPPM initialization ...
  using 12-bit tables for long-range coulomb (../kspace.cpp:321)
  G vector (1/distance) = 0.202603
  grid = 36 50 24
  stencil order = 5
  estimated absolute RMS force accuracy = 0.000997728
  estimated relative force accuracy = 6.92884e-05
  using double precision FFTs
  3d grid and FFT values/proc = 65395 43200
Setting up Verlet run ...
  Unit style    : metal
  Current step  : 0
  Time step     : 0.001
Per MPI rank memory allocation (min/avg/max) = 151.5 | 151.5 | 151.5 Mbytes
Step Temp Volume Cella Cellb Cellc CellGamma Pxx Pyy Pzz Pxy Pxz Pyz Lx Ly Lz Press PotEng 
       0    486.14946     163239.6    72.291916    72.291916    36.067448          120    20104.229    21539.855    -33899.51    814.50054     464.0924    -261.4863    72.291916    62.606636    36.067448    2581.5249   -311427.29 
  100000    496.47558    164815.88    72.523861    72.523861    36.183168          120    23258.044    18382.995   -38051.906     873.9103   -1029.3953    108.57357    72.523861    62.807506    36.183168    1196.3776   -311547.77 
Loop time of 38569.5 on 1 procs for 100000 steps with 14848 atoms

Performance: 0.224 ns/day, 107.138 hours/ns, 2.593 timesteps/s
100.0% CPU use with 1 MPI tasks x no OpenMP threads

MPI task timing breakdown:
Section |  min time  |  avg time  |  max time  |%varavg| %total
---------------------------------------------------------------
Pair    | 30408      | 30408      | 30408      |   0.0 | 78.84
Bond    | 0.056334   | 0.056334   | 0.056334   |   0.0 |  0.00
Kspace  | 1457.1     | 1457.1     | 1457.1     |   0.0 |  3.78
Neigh   | 5773.3     | 5773.3     | 5773.3     |   0.0 | 14.97
Comm    | 54.639     | 54.639     | 54.639     |   0.0 |  0.14
Output  | 0.00012803 | 0.00012803 | 0.00012803 |   0.0 |  0.00
Modify  | 857.96     | 857.96     | 857.96     |   0.0 |  2.22
Other   |            | 18.1       |            |       |  0.05

Nlocal:    14848 ave 14848 max 14848 min
Histogram: 1 0 0 0 0 0 0 0 0 0
Nghost:    46614 ave 46614 max 46614 min
Histogram: 1 0 0 0 0 0 0 0 0 0
Neighs:    9.98305e+06 ave 9.98305e+06 max 9.98305e+06 min
Histogram: 1 0 0 0 0 0 0 0 0 0

Total # of neighbors = 9983054
Ave neighs/atom = 672.35
Ave special neighs/atom = 0
Neighbor list builds = 17062
Dangerous builds = 0
 
All done!
Total wall time: 10:49:32
