LAMMPS (16 Mar 2018)
Reading data file ...
  triclinic box = (0 0 0) to (9.208 7.97436 18.376) with tilt (-4.604 0 0)
  1 by 1 by 1 MPI processor grid
  reading atoms ...
  116 atoms
Finding 1-2 1-3 1-4 neighbors ...
  special bond factors lj:   0          0          0         
  special bond factors coul: 0          0          0         
  0 = max # of 1-2 neighbors
  0 = max # of 1-3 neighbors
  0 = max # of 1-4 neighbors
  1 = max # of special neighbors
Replicating atoms ...
  triclinic box = (0 0 0) to (73.664 63.7949 36.752) with tilt (-36.832 0 0)
  1 by 1 by 1 MPI processor grid
  14848 atoms
Finding 1-2 1-3 1-4 neighbors ...
  special bond factors lj:   0          0          0         
  special bond factors coul: 0          0          0         
  0 = max # of 1-2 neighbors
  0 = max # of 1-3 neighbors
  0 = max # of 1-4 neighbors
  1 = max # of special neighbors
  Time spent = 0.004776 secs
PPPM initialization ...
WARNING: System is not charge neutral, net charge = -0.2048 (../kspace.cpp:302)
  using 12-bit tables for long-range coulomb (../kspace.cpp:321)
  G vector (1/distance) = 0.201681
  grid = 36 50 24
  stencil order = 5
  estimated absolute RMS force accuracy = 0.00105653
  estimated relative force accuracy = 7.33721e-05
  using double precision FFTs
  3d grid and FFT values/proc = 65395 43200
Neighbor list info ...
  update every 1 steps, delay 0 steps, check yes
  max neighbors/atom: 2000, page size: 100000
  master list distance cutoff = 15.3
  ghost atom cutoff = 15.3
  binsize = 7.65, bins = 15 9 5
  3 neighbor lists, perpetual/occasional/extra = 3 0 0
  (1) pair morse, perpetual
      attributes: half, newton on
      pair build: half/bin/newton/tri
      stencil: half/bin/3d/newton/tri
      bin: standard
  (2) pair buck, perpetual, copy from (1)
      attributes: half, newton on
      pair build: copy
      stencil: none
      bin: none
  (3) pair lj/cut/coul/long, perpetual, copy from (1)
      attributes: half, newton on
      pair build: copy
      stencil: none
      bin: none
Setting up Verlet run ...
  Unit style    : metal
  Current step  : 0
  Time step     : 0.001
Per MPI rank memory allocation (min/avg/max) = 145.7 | 145.7 | 145.7 Mbytes
Step Temp Volume Cella Cellb Cellc CellGamma Pxx Pyy Pzz Pxy Pxz Pyz Lx Ly Lz Press PotEng 
       0          700    172711.88       73.664    73.664001       36.752          120   -203142.65   -203265.85   -274233.17    56.416674   -17.799522    23.807274       73.664    63.794896       36.752   -226880.56   -309191.56 
      10    548.03967    172683.88    73.660019     73.66002    36.750014          120   -198879.15   -198959.22    -245399.2    152.06309   -37.947501   -267.94612    73.660019    63.791448    36.750014   -214412.52   -308915.89 
      20    848.24854    172602.69    73.648474    73.648474    36.744254          120   -187515.88   -187440.87   -182730.31     89.04398   -261.75663   -575.83479    73.648474     63.78145    36.744254   -185895.69   -309505.43 
      30    920.06289    172475.94    73.630441    73.630441    36.735257          120   -147278.32   -147313.46   -103398.41   -163.12671   -847.76422   -571.55397    73.630441    63.765833    36.735257    -132663.4   -309659.94 
      40    694.34551    172317.16    73.607839    73.607839     36.72398          120    -96559.36    -97218.36   -24269.215   -1238.4076   -1157.9495   -530.21962    73.607839    63.746259     36.72398   -72682.311   -309234.92 
      50    802.65392    172141.14    73.582768    73.582769    36.711472          120   -66383.559   -67607.393   -6643.9345   -470.23855   -803.06743   -665.39992    73.582768    63.724547    36.711472   -46878.296   -309445.22 
      60    1044.9816    171955.34    73.556285    73.556286     36.69826          120   -57459.243   -57001.131    -53957.48   -1183.4785   -1755.2594   -707.87409    73.556285    63.701612     36.69826   -56139.284   -309917.77 
      70      1173.83     171759.4    73.528334    73.528335    36.684315          120   -52688.384   -53294.987    -117269.1   -2014.5278   -2401.4118   -899.94601    73.528334    63.677406    36.684315   -74417.491   -310191.05 
      80    1053.0173    171550.62    73.498531    73.498531    36.669445          120   -51264.743    -53443.66   -160582.19   -2079.5206   -2245.0634   -182.01559    73.498531    63.651595    36.669445   -88430.198   -309992.03 
      90    825.94178     171327.7    73.466682    73.466682    36.653555          120   -48757.816   -49141.409   -171529.39   -2008.1347   -2741.8504   -1560.6585    73.466682    63.624013    36.653555   -89809.537   -309583.35 
     100    850.32442    171092.93    73.433109    73.433109    36.636805          120   -32382.899   -32184.889   -150224.53   -1848.2648   -2519.4785   -1685.4684    73.433109    63.594938    36.636805   -71597.439   -309654.34 
     110    1001.7524    170853.05    73.398774    73.398775    36.619675          120   -13075.934   -13548.013   -111613.46   -2015.3248   -743.98076   -2164.0444    73.398774    63.565204    36.619675   -46079.137   -309973.76 
     120    1026.2105     170616.4     73.36487    73.364871     36.60276          120   -2524.2976   -2802.3441    -67058.61   -1880.9531   -102.88664   -1890.2905     73.36487    63.535842     36.60276   -24128.417   -310052.16 
     130    944.25272    170389.85    73.332384    73.332384    36.586552          120   -2255.2824   -1202.4744   -31541.487   -1444.5893   -836.19562   -1936.4185    73.332384    63.507708    36.586552   -11666.415   -309924.35 
     140    899.22969    170177.25    73.301871    73.301872    36.571329          120   -5900.0082   -5831.7516   -17729.358   -858.86731   -841.81557   -2262.0906    73.301871    63.481283    36.571329   -9820.3727   -309862.11 
     150    929.45045     169979.1     73.27341    73.273411    36.557129          120    -13089.46   -12156.116    -34548.63   -1873.5645   -636.66792   -1849.0937     73.27341    63.456635    36.557129   -19931.402   -309944.89 
     160    991.02927    169792.82    73.246633    73.246634     36.54377          120   -21358.358   -20878.393   -65189.765    -1563.021   -1213.5918   -2715.0965    73.246633    63.433446     36.54377   -35808.839   -310093.74 
     170    997.79485    169614.45    73.220976    73.220976    36.530969          120   -25484.028   -24838.516   -93771.019   -1174.2942   -1537.8918   -2761.2239    73.220976    63.411226    36.530969   -48031.188   -310141.29 
     180    932.59932    169440.87    73.195989    73.195989    36.518503          120   -23675.478   -22760.307   -112466.26   -1085.6711   -1998.6678   -2676.7856    73.195989    63.389586    36.518503   -52967.349   -310050.98 
     190    903.77798     169270.6    73.171463    73.171464    36.506267          120   -20267.559   -18659.947   -114077.31   -965.01711   -2867.7107   -2400.6079    73.171463    63.368347    36.506267   -51001.606   -310027.12 
     200    926.85356    169103.78    73.147417    73.147418     36.49427          120   -15848.491   -15651.663   -98639.602   -1388.5345   -1930.6647   -2139.9811    73.147417    63.347522     36.49427   -43379.919   -310102.82 
     210    951.61653     168941.6    73.124026    73.124027    36.482599          120   -11606.264   -11746.143   -78141.698   -1553.2103   -1818.0394   -2043.0298    73.124026    63.327265    36.482599   -33831.368    -310181.7 
     220    935.03743     168785.5    73.101497    73.101497    36.471359          120   -9297.5689   -7727.9123   -61364.307    -2032.628   -1111.2435   -3109.6159    73.101497    63.307754    36.471359   -26129.929   -310180.15 
     230    919.99793    168636.23    73.079941    73.079942    36.460605          120    -10153.35   -8642.3352   -53188.545   -1087.9529   -242.39462   -4258.3062    73.079941    63.289086    36.460605   -23994.743   -310179.77 
     240    912.65614    168493.33    73.059293    73.059293    36.450303          120   -12130.432     -10369.2   -52841.928   -823.75069   -1027.2916   -5296.2057    73.059293    63.271204    36.450303   -25113.853   -310195.11 
     250    928.56692    168355.49    73.039366    73.039366    36.440361          120   -15151.424   -13811.965   -62916.193   -118.51496   -1197.0033   -4334.8363    73.039366    63.253947    36.440361   -30626.528    -310256.3 
     260     936.8281    168220.73    73.019871    73.019872    36.430635          120   -17440.518   -16368.067   -74969.241   -416.68095   -1462.0242   -4241.5998    73.019871    63.237064    36.430635   -36259.275   -310304.54 
     270    919.84557     168087.1    73.000532    73.000533    36.420987          120   -17512.298   -18142.597   -84829.062    299.82349   -1153.2581   -4008.2015    73.000532    63.220316    36.420987   -40161.319   -310304.26 
     280    900.28007    167953.28    72.981153    72.981154    36.411318          120   -17737.505   -16839.655   -88834.049    349.70404   -1201.2265    -2697.386    72.981153    63.203533    36.411318    -41137.07   -310298.62 
     290    902.52723    167818.71    72.961657    72.961658    36.401591          120   -14283.275   -12679.332   -85094.177    314.78996   -1071.9298   -2917.4225    72.961657    63.186649    36.401591   -37352.261   -310333.16 
     300    902.38329    167683.98    72.942126    72.942127    36.391847          120   -9931.6828   -8433.1788   -75225.101   -450.61254   -1267.6897   -2859.4311    72.942126    63.169735    36.391847   -31196.654   -310362.26 
     310    896.87369    167550.17    72.922719     72.92272    36.382165          120   -6988.2284   -5930.9214   -63571.218   -754.00402   -759.75414   -2785.6726    72.922719    63.152928    36.382165   -25496.789   -310380.87 
     320    890.23533    167418.27    72.903579    72.903579    36.372615          120    -6016.437   -4883.8309   -54877.543    418.50449    470.99584   -2476.8126    72.903579    63.136352    36.372615   -21925.937   -310397.58 
     330    877.61244    167288.84    72.884787    72.884787     36.36324          120   -5049.2286   -4672.0883   -50124.907    437.59053     82.34487   -3454.0807    72.884787    63.120078     36.36324   -19948.741   -310401.45 
     340    878.60869    167162.01    72.866362    72.866363    36.354047          120   -6457.0218    -4194.484   -53191.161    461.18208   -173.28249   -4318.6747    72.866362    63.104121    36.354047   -21280.889    -310430.9 
     350    881.69781    167037.23    72.848227    72.848227    36.344999          120   -8789.7445   -4864.9842   -60683.352    916.32574    607.30678   -3256.0247    72.848227    63.088416    36.344999    -24779.36   -310464.77 
     360    873.80928    166913.57    72.830246    72.830247    36.336029          120   -8338.6524   -4790.7447   -69116.858    59.515352    83.286307    -2988.054    72.830246    63.072844    36.336029   -27415.418   -310477.58 
     370    853.71881    166790.37    72.812322    72.812323    36.327086          120   -6322.8301   -4522.9768   -72305.922   -481.24878   -1195.3302    -2687.305    72.812322    63.057322    36.327086   -27717.243   -310466.58 
     380    854.65294     166667.5    72.794438    72.794439    36.318164          120   -4659.9873   -1994.4324   -69161.503   -986.53266    -773.1445   -3365.5518    72.794438    63.041834    36.318164   -25271.974   -310495.02 
     390    861.40457    166545.46    72.776667    72.776668    36.309297          120   -1184.1488    370.68417    -63711.95   -1154.5092   -768.70854   -3868.1231    72.776667    63.026443    36.309297   -21508.472   -310534.57 
     400    846.84067    166425.06    72.759126    72.759126    36.300546          120    1353.3301    2093.6614   -56999.315   -848.19428   -366.90429   -3314.8412    72.759126    63.011252    36.300546   -17850.775   -310532.35 
     410    854.27646    166307.02     72.74192     72.74192    36.291961          120     1435.841    2986.5754   -50195.673   -350.70041   -385.28551   -3264.2678     72.74192    62.996351    36.291961   -15257.752   -310572.23 
     420    838.39696    166191.83    72.725121    72.725122     36.28358          120    1393.9372    4601.1854   -45891.261    95.962528       107.97   -2460.0312    72.725121    62.981803     36.28358   -13298.713   -310567.01 
     430    827.89246    166079.76     72.70877    72.708771    36.275422          120    1617.0477    5457.0539   -47335.746   -417.66418    278.47181   -2267.3578     72.70877    62.967643    36.275422   -13420.548   -310571.95 
     440    834.69815    165970.61    72.692838    72.692839    36.267474          120   -134.71555    3468.6544   -52738.382     296.2977   -731.49861   -1902.5996    72.692838    62.953845    36.267474   -16468.148   -310610.46 
     450    830.30121    165863.65    72.677219     72.67722    36.259681          120   -272.44641    1081.2739   -57655.574   -503.20381    121.21665   -1389.7585    72.677219    62.940319    36.259681   -18948.915   -310625.87 
     460    828.59529     165758.3    72.661829     72.66183    36.252003          120    2736.7869    2585.8055   -59969.636   -294.04495    312.49713   -2145.8127    72.661829    62.926991    36.252003   -18215.681   -310647.66 
     470    809.17286    165654.62    72.646676    72.646677    36.244443          120    4335.0556    5731.1271   -58948.642    641.49734    277.22945   -2286.7677    72.646676    62.913868    36.244443   -16294.153   -310633.57 
     480    809.48502    165552.95    72.631811    72.631811    36.237026          120    5277.1665     7457.472   -55765.236    698.83952    532.09465   -2585.6236    72.631811    62.900994    36.237026   -14343.533   -310656.94 
     490    800.82784    165453.66    72.617287    72.617288     36.22978          120     6259.318    9706.8155   -51006.772    940.67128    1159.7186   -2473.2389    72.617287    62.888416     36.22978   -11680.213   -310661.76 
     500    802.46169    165357.18    72.603169     72.60317    36.222737          120    5829.4073    11918.681   -47199.127    894.72074    1282.9155    -1938.414    72.603169     62.87619    36.222737   -9817.0129   -310686.07 
     510     793.0076    165263.76    72.589494    72.589495    36.215914          120    6871.5155     10824.86   -45208.279     819.9282    1854.1016   -2241.7496    72.589494    62.864347    36.215914   -9170.6343   -310689.87 
     520    795.09679    165173.43    72.576267    72.576268    36.209315          120    7656.1936    11393.691   -43019.823    849.96952    887.11176     -2356.46    72.576267    62.852892    36.209315   -7989.9792    -310715.1 
     530    797.02775    165086.28      72.5635    72.563501    36.202945          120    10767.239    13013.981   -44266.433    1259.1208    1069.4146   -2898.8636      72.5635    62.841835    36.202945   -6828.4044   -310738.89 
     540    788.92351    165002.36    72.551203    72.551203     36.19681          120    12528.686    13615.898   -46153.996   -476.96295    1469.4056   -2797.9032    72.551203    62.831185     36.19681   -6669.8038   -310743.75 
     550    788.39233    164921.57    72.539358    72.539359    36.190901          120    12394.744    14524.614   -46738.222   -735.39594     2066.751   -2286.3461    72.539358    62.820928    36.190901   -6606.2876   -310763.06 
     560    783.07433    164843.69     72.52794     72.52794    36.185204          120    12168.969    14757.096   -47751.518   -339.89028    1654.6555   -1532.7366     72.52794    62.811039    36.185204   -6941.8177   -310772.48 
     570    774.22846    164768.54    72.516916    72.516916    36.179704          120    13283.947    16133.265   -46571.445   -1069.4145    1815.8851   -1862.4105    72.516916    62.801492    36.179704   -5718.0777      -310774 
     580    773.74271    164696.15    72.506294    72.506295    36.174404          120    12619.495    16812.428   -43822.796   -457.02358    1629.7709   -2428.7322    72.506294    62.792293    36.174404   -4796.9576   -310792.29 
     590    762.43814    164626.59    72.496086    72.496086    36.169311          120    12971.711    17788.773    -40034.12    1050.6017    1817.4835      -2879.8    72.496086    62.783453    36.169311   -3091.2124   -310788.69 
     600    763.75497    164560.02    72.486312    72.486313    36.164435          120    14035.926    18067.196   -39006.419    238.31825    1663.7892   -2047.9597    72.486312    62.774989    36.164435   -2301.0991   -310809.86 
     610    757.86472    164496.44    72.476976    72.476976    36.159777          120    14568.343    17404.386   -39015.861   -465.69397    1734.0906   -1719.4159    72.476976    62.766903    36.159777   -2347.7105    -310816.1 
     620     757.0677    164435.68    72.468052    72.468052    36.155325          120    15098.701    16435.112   -39560.238    452.20089    1656.5668    -1868.486    72.468052    62.759174    36.155325    -2675.475   -310831.33 
     630    759.90072    164377.49    72.459502    72.459503    36.151059          120    15809.769    16157.353    -41413.66    315.96345    1040.6604   -2185.9523    72.459502     62.75177    36.151059   -3148.8461   -310853.66 
     640    755.56177    164321.61     72.45129    72.451291    36.146962          120    16055.115    16945.726   -42153.116    477.16801   -174.68595   -168.59551     72.45129    62.744659    36.146962   -3050.7585   -310861.89 
     650    749.77588    164267.91    72.443397    72.443398    36.143024          120     16019.86    18735.915    -43275.61    399.94056    226.44023   -419.16113    72.443397    62.737823    36.143024   -2839.9451   -310866.85 
     660    745.14194    164216.29    72.435808    72.435808    36.139238          120    16004.046    18766.178   -42308.242    599.36136    1336.4962   -1363.1006    72.435808     62.73125    36.139238   -2512.6729   -310874.21 
     670    737.04387     164166.7    72.428515    72.428516    36.135599          120     16660.51    19101.105    -40451.23    1282.0083    1756.1574   -1191.9402    72.428515    62.724935    36.135599   -1563.2052   -310874.31 
     680      734.747    164119.21    72.421531    72.421532    36.132115          120    17963.697    19198.103   -38310.608    974.43672    1601.2655   -1251.5803    72.421531    62.718886    36.132115   -382.93602   -310885.06 
     690    732.68942    164073.96    72.414875    72.414876    36.128794          120      19452.2    18700.053    -35780.66    683.90728    1190.1945   -2076.4139    72.414875    62.713122    36.128794     790.5309    -310895.1 
     700    736.24952    164031.06    72.408562    72.408562    36.125644          120    19778.004    18708.639    -34549.26     965.2913    528.60035   -2656.3834    72.408562    62.707655    36.125644    1312.4609    -310915.7 
     710    738.84709    163990.49    72.402592    72.402592    36.122666          120    19742.113     20415.22   -34347.548    1035.8446    1184.7324   -2654.5345    72.402592    62.702484    36.122666    1936.5951   -310934.19 
     720    732.37182    163952.23    72.396962    72.396962    36.119857          120    18376.256    21843.907   -35833.916     825.5694    1324.7019   -2228.0844    72.396962    62.697609    36.119857    1462.0822   -310934.85 
     730    722.25706    163916.11    72.391644    72.391645    36.117204          120    19228.148    22123.454   -35825.861    691.53716    586.65036    -1828.304    72.391644    62.693003    36.117204    1841.9136   -310928.68 
     740    722.87985    163882.01    72.386625    72.386625      36.1147          120    19110.501    21438.215   -37066.099    929.85244    1235.0114   -1596.0664    72.386625    62.688656      36.1147    1160.8721   -310943.32 
     750    716.79349    163849.75    72.381874    72.381875     36.11233          120     19796.78    22284.112   -37144.425    866.21374    795.99193   -2529.0083    72.381874    62.684543     36.11233    1645.4889   -310944.29 
     760    722.31478    163819.33    72.377394    72.377395    36.110094          120    22506.082    22477.727   -33960.329    813.69905    997.28015   -2880.7393    72.377394    62.680663    36.110094    3674.4936    -310966.7 
     770    715.33648    163791.03    72.373226    72.373226    36.108015          120     23257.07    22573.498   -32860.807    1079.8143    2436.8457   -2664.8958    72.373226    62.677053    36.108015    4323.2535   -310964.75 
     780    714.27065    163764.92     72.36938    72.369381    36.106096          120    22694.544    24045.903   -32237.628     316.2981    2396.6827    -1878.265     72.36938    62.673722    36.106096    4834.2728   -310974.05 
     790    706.86198       163741    72.365857    72.365858    36.104338          120    23018.264    24907.178   -31847.934    191.30252    1774.1659   -1482.9358    72.365857    62.670671    36.104338    5359.1694   -310970.66 
     800    710.02472    163719.26    72.362653    72.362654     36.10274          120    21662.955    24309.374   -31931.249     377.2829    1792.4258   -2457.4145    72.362653    62.667897     36.10274      4680.36   -310987.24 
     810    701.78404    163699.45    72.359736    72.359736    36.101284          120    21221.611    23455.362   -33676.727    112.45551    2167.0511   -1599.5124    72.359736     62.66537    36.101284    3666.7486   -310981.34 
     820    705.81783    163681.29    72.357059    72.357059    36.099949          120    21389.498    23272.047   -34989.388    578.88643    2770.9505   -892.66889    72.357059    62.663052    36.099949    3224.0523   -310998.35 
     830      703.336    163664.57    72.354596    72.354597     36.09872          120    22127.334    22808.229   -35510.473    482.88249    1502.9843    -1078.021    72.354596    62.660919     36.09872    3141.6966   -311002.33 
     840    701.76598    163649.22    72.352333    72.352334    36.097591          120    21158.377    22855.976   -35950.504    952.90889    267.46252   -2037.8965    72.352333    62.658959    36.097591    2687.9497   -311008.25 
     850    692.42467    163635.12    72.350255    72.350255    36.096554          120    22052.578    24304.211   -34363.139    1466.6007    159.91355    -2133.174    72.350255    62.657159    36.096554    3997.8835   -310998.37 
     860    701.89711    163622.41    72.348382    72.348382     36.09562          120    22165.294    24330.419    -34389.86    144.43122     266.5034   -1628.5648    72.348382    62.655537     36.09562    4035.2841    -311024.5 
     870    696.54262     163611.1    72.346715    72.346716    36.094788          120    21992.187    24143.177   -33242.101   -192.58631    121.83535   -1261.2504    72.346715    62.654094    36.094788    4297.7545   -311022.26 
     880    699.72279    163601.18    72.345252    72.345253    36.094058          120    22485.973    23968.348   -33619.935    599.13268    513.70516   -2378.8173    72.345252    62.652827    36.094058    4278.1285   -311035.09 
     890     692.6647    163592.58    72.343985    72.343985    36.093426          120     23583.01    23568.817   -32619.445    785.97103    2043.2172   -2571.9545    72.343985    62.651729    36.093426    4844.1274   -311029.33 
     900    685.76883    163585.38    72.342924    72.342924    36.092897          120    23433.604    25142.339   -31023.537     67.40811    2253.2473   -2263.8855    72.342924    62.650811    36.092897     5850.802   -311021.78 
     910    690.12314    163579.69    72.342086    72.342086    36.092478          120    23185.264    24818.012   -32859.948    -500.3214    1738.8206   -1781.2284    72.342086    62.650085    36.092478    5047.7759   -311035.62 
     920    683.63333    163575.34    72.341443    72.341444    36.092158          120    23305.096    24196.311   -33937.121   -145.50466    1867.3361   -1913.8922    72.341443    62.649528    36.092158    4521.4285   -311028.16 
     930    689.85408    163572.13    72.340971    72.340972    36.091922          120    21919.154    24673.437   -34489.229   -558.12932    1690.9044   -2166.2896    72.340971    62.649119    36.091922    4034.4542   -311044.15 
     940    688.74183    163569.92    72.340645    72.340645     36.09176          120    20572.709    24573.988   -34775.307   -455.73915    860.15972   -3019.2662    72.340645    62.648837     36.09176      3457.13   -311045.85 
     950     686.7718    163568.55    72.340443    72.340444    36.091659          120    20328.169      25008.1   -34025.863    784.88918    1723.3157   -3247.6071    72.340443    62.648662    36.091659    3770.1355   -311046.02 
     960     682.4178     163568.1    72.340377    72.340377    36.091626          120    22203.295    26463.942   -32315.165    686.50725    1371.9185   -3142.2796    72.340377    62.648605    36.091626    5450.6905   -311040.72 
     970    684.22649    163568.85    72.340487    72.340488    36.091681          120    23792.742    26603.206   -30624.959    1069.5049    972.22611   -3218.9761    72.340487    62.648701    36.091681    6590.3296   -311046.65 
     980    681.60657    163570.99    72.340803    72.340804    36.091839          120    23405.863    26096.003   -31055.783    1217.9137    1388.2716   -3223.6276    72.340803    62.648974    36.091839    6148.6946   -311043.07 
     990    687.75694     163574.4    72.341305    72.341306    36.092089          120    22187.221    25182.208   -32470.549    1647.5404    1590.7099   -2043.4225    72.341305    62.649408    36.092089    4966.2934   -311055.47 
    1000    686.73543    163578.81    72.341956    72.341956    36.092414          120    21534.773    26295.081   -33164.859    1605.1528    1841.8063   -2621.4689    72.341956    62.649972    36.092414    4888.3318   -311054.81 
Loop time of 407.937 on 1 procs for 1000 steps with 14848 atoms

Performance: 0.212 ns/day, 113.316 hours/ns, 2.451 timesteps/s
100.0% CPU use with 1 MPI tasks x no OpenMP threads

MPI task timing breakdown:
Section |  min time  |  avg time  |  max time  |%varavg| %total
---------------------------------------------------------------
Pair    | 310.8      | 310.8      | 310.8      |   0.0 | 76.19
Bond    | 0.00052428 | 0.00052428 | 0.00052428 |   0.0 |  0.00
Kspace  | 14.603     | 14.603     | 14.603     |   0.0 |  3.58
Neigh   | 73.377     | 73.377     | 73.377     |   0.0 | 17.99
Comm    | 0.58835    | 0.58835    | 0.58835    |   0.0 |  0.14
Output  | 0.013701   | 0.013701   | 0.013701   |   0.0 |  0.00
Modify  | 8.378      | 8.378      | 8.378      |   0.0 |  2.05
Other   |            | 0.1798     |            |       |  0.04

Nlocal:    14848 ave 14848 max 14848 min
Histogram: 1 0 0 0 0 0 0 0 0 0
Nghost:    46704 ave 46704 max 46704 min
Histogram: 1 0 0 0 0 0 0 0 0 0
Neighs:    1.00616e+07 ave 1.00616e+07 max 1.00616e+07 min
Histogram: 1 0 0 0 0 0 0 0 0 0

Total # of neighbors = 10061635
Ave neighs/atom = 677.642
Ave special neighs/atom = 0
Neighbor list builds = 218
Dangerous builds = 0
PPPM initialization ...
  using 12-bit tables for long-range coulomb (../kspace.cpp:321)
  G vector (1/distance) = 0.20257
  grid = 36 50 24
  stencil order = 5
  estimated absolute RMS force accuracy = 0.000999828
  estimated relative force accuracy = 6.94342e-05
  using double precision FFTs
  3d grid and FFT values/proc = 65395 43200
Setting up Verlet run ...
  Unit style    : metal
  Current step  : 0
  Time step     : 0.001
Per MPI rank memory allocation (min/avg/max) = 151.5 | 151.5 | 151.5 Mbytes
Step Temp Volume Cella Cellb Cellc CellGamma Pxx Pyy Pzz Pxy Pxz Pyz Lx Ly Lz Press PotEng 
       0    686.73543    163578.81    72.341956    72.341956    36.092414          120    21545.377    26305.688   -33160.292    1605.6876    1841.7506   -2621.2635    72.341956    62.649972    36.092414    4896.9244   -311054.66 
  100000     703.2238    165436.06    72.614713    72.614713    36.228496          120    19673.588    22888.443    -36304.83    777.72237    638.03889    1974.0941    72.614713    62.886187    36.228496    2085.7335   -311199.36 
Loop time of 39494.4 on 1 procs for 100000 steps with 14848 atoms

Performance: 0.219 ns/day, 109.707 hours/ns, 2.532 timesteps/s
100.0% CPU use with 1 MPI tasks x no OpenMP threads

MPI task timing breakdown:
Section |  min time  |  avg time  |  max time  |%varavg| %total
---------------------------------------------------------------
Pair    | 30312      | 30312      | 30312      |   0.0 | 76.75
Bond    | 0.055046   | 0.055046   | 0.055046   |   0.0 |  0.00
Kspace  | 1469.9     | 1469.9     | 1469.9     |   0.0 |  3.72
Neigh   | 6798       | 6798       | 6798       |   0.0 | 17.21
Comm    | 57.45      | 57.45      | 57.45      |   0.0 |  0.15
Output  | 0.00012684 | 0.00012684 | 0.00012684 |   0.0 |  0.00
Modify  | 838.97     | 838.97     | 838.97     |   0.0 |  2.12
Other   |            | 17.81      |            |       |  0.05

Nlocal:    14848 ave 14848 max 14848 min
Histogram: 1 0 0 0 0 0 0 0 0 0
Nghost:    46579 ave 46579 max 46579 min
Histogram: 1 0 0 0 0 0 0 0 0 0
Neighs:    9.94728e+06 ave 9.94728e+06 max 9.94728e+06 min
Histogram: 1 0 0 0 0 0 0 0 0 0

Total # of neighbors = 9947280
Ave neighs/atom = 669.941
Ave special neighs/atom = 0
Neighbor list builds = 20164
Dangerous builds = 0
 
All done!
Total wall time: 11:05:04
