LAMMPS (16 Mar 2018)
Reading data file ...
  triclinic box = (0 0 0) to (9.208 7.97436 18.376) with tilt (-4.604 0 0)
  1 by 1 by 1 MPI processor grid
  reading atoms ...
  116 atoms
Finding 1-2 1-3 1-4 neighbors ...
  special bond factors lj:   0          0          0         
  special bond factors coul: 0          0          0         
  0 = max # of 1-2 neighbors
  0 = max # of 1-3 neighbors
  0 = max # of 1-4 neighbors
  1 = max # of special neighbors
Replicating atoms ...
  triclinic box = (0 0 0) to (73.664 63.7949 36.752) with tilt (-36.832 0 0)
  1 by 1 by 1 MPI processor grid
  14848 atoms
Finding 1-2 1-3 1-4 neighbors ...
  special bond factors lj:   0          0          0         
  special bond factors coul: 0          0          0         
  0 = max # of 1-2 neighbors
  0 = max # of 1-3 neighbors
  0 = max # of 1-4 neighbors
  1 = max # of special neighbors
  Time spent = 0.00581408 secs
PPPM initialization ...
WARNING: System is not charge neutral, net charge = -0.2048 (../kspace.cpp:302)
  using 12-bit tables for long-range coulomb (../kspace.cpp:321)
  G vector (1/distance) = 0.201681
  grid = 36 50 24
  stencil order = 5
  estimated absolute RMS force accuracy = 0.00105653
  estimated relative force accuracy = 7.33721e-05
  using double precision FFTs
  3d grid and FFT values/proc = 65395 43200
Neighbor list info ...
  update every 1 steps, delay 0 steps, check yes
  max neighbors/atom: 2000, page size: 100000
  master list distance cutoff = 15.3
  ghost atom cutoff = 15.3
  binsize = 7.65, bins = 15 9 5
  3 neighbor lists, perpetual/occasional/extra = 3 0 0
  (1) pair morse, perpetual
      attributes: half, newton on
      pair build: half/bin/newton/tri
      stencil: half/bin/3d/newton/tri
      bin: standard
  (2) pair buck, perpetual, copy from (1)
      attributes: half, newton on
      pair build: copy
      stencil: none
      bin: none
  (3) pair lj/cut/coul/long, perpetual, copy from (1)
      attributes: half, newton on
      pair build: copy
      stencil: none
      bin: none
Setting up Verlet run ...
  Unit style    : metal
  Current step  : 0
  Time step     : 0.001
Per MPI rank memory allocation (min/avg/max) = 145.7 | 145.7 | 145.7 Mbytes
Step Temp Volume Cella Cellb Cellc CellGamma Pxx Pyy Pzz Pxy Pxz Pyz Lx Ly Lz Press PotEng 
       0          800    172711.88       73.664    73.664001       36.752          120   -201944.43   -202086.32   -273050.34    64.290539   -20.341689    27.208548       73.664    63.794896       36.752   -225693.69   -309191.56 
      10    594.65438    172687.55    73.660541    73.660541    36.750274          120   -196242.52   -196313.33   -242599.78     152.8402   -40.923254     -289.159    73.660541      63.7919    36.750274   -211718.54   -308811.26 
      20    900.34562    172617.24    73.650542    73.650543    36.745286          120   -183159.16    -183188.7   -179327.76    108.11828   -241.83997   -614.29602    73.650542    63.783241    36.745286   -181891.87   -309408.27 
      30    980.60959    172507.88    73.634986    73.634986    36.737524          120   -140946.26   -141073.37   -100063.67   -160.54478   -846.03981   -587.14916    73.634986    63.769769    36.737524    -127361.1   -309572.71 
      40     754.8778    172371.45    73.615569     73.61557    36.727837          120   -90489.298   -91225.102   -21713.113   -1357.8232   -1141.0558   -526.28606    73.615569    63.752954    36.727837   -67809.171   -309140.79 
      50    868.45004    172220.61    73.594089    73.594089     36.71712          120   -62617.828   -63904.576   -6961.9283   -432.72162   -684.78567   -682.51941    73.594089    63.734351     36.71712   -44494.777   -309356.11 
      60    1100.4472    172061.11    73.571363    73.571363    36.705782          120   -55659.538   -55151.501   -55082.522   -1266.9095   -1696.7391   -769.89632    73.571363     63.71467    36.705782   -55297.854   -309803.75 
      70    1222.4535       171892    73.547252    73.547253    36.693753          120   -51910.183   -52737.093   -117886.03     -2037.87    -2347.307   -899.36778    73.547252     63.69379    36.693753    -74177.77   -310060.16 
      80    1104.2455    171710.47    73.521352    73.521352    36.680831          120   -51384.865   -53710.029   -160372.09   -2120.5294    -2142.207   -268.57875    73.521352    63.671359    36.680831   -88488.994   -309861.61 
      90    884.12944    171514.88    73.493427    73.493427    36.666899          120   -49272.582   -49482.459   -170647.39   -1933.7397   -2656.6782    -1786.461    73.493427    63.647175    36.666899   -89800.811   -309460.62 
     100     911.7734    171306.83    73.463698    73.463699    36.652067          120   -32994.534   -32511.431   -149559.56   -1776.3185   -2399.0292   -1766.4857    73.463698     63.62143    36.652067   -71688.508   -309533.69 
     110    1058.3289    171091.82    73.432951    73.432951    36.636726          120   -14148.459   -14251.383   -111921.87     -2041.37   -590.40246   -2134.8978    73.432951    63.594801    36.636726   -46773.905   -309839.32 
     120    1083.0383    170876.84    73.402181    73.402181    36.621375          120    -3667.854    -3663.306   -68330.411   -1867.0578    94.509911   -1876.4482    73.402181    63.568154    36.621375   -25220.524   -309913.86 
     130    1007.6801    170667.86    73.372245    73.372245    36.606439          120   -3351.9107   -2017.5533   -33360.773   -1341.1517    -735.2023   -1788.7979    73.372245    63.542228    36.606439   -12910.079   -309795.11 
     140    962.93789    170468.47     73.34366    73.343661    36.592178          120   -6858.4692   -6478.8412   -19758.133   -812.17074   -737.97548   -2413.2192     73.34366    63.517474    36.592178   -11031.814   -309730.47 
     150    990.36454    170279.55    73.316557    73.316557    36.578656          120   -13895.063   -12990.334   -36239.321   -1810.7216   -738.49788   -1829.1396    73.316557    63.494001    36.578656   -21041.573   -309805.46 
     160     1052.246    170099.34    73.290684    73.290684    36.565747          120   -22229.913   -21215.629   -66282.982   -1757.4028   -1062.0549   -2851.8057    73.290684    63.471594    36.565747   -36576.175   -309951.43 
     170    1060.5241    169924.92    73.265624    73.265624    36.553245          120   -25796.654   -25170.473   -94220.474   -1309.2113   -1498.7157   -2863.8458    73.265624    63.449892    36.553245   -48395.867    -309998.3 
     180    998.94366    169754.05    73.241058    73.241059    36.540988          120   -23628.615   -23018.067   -112617.77   -715.19086    -1871.203   -2946.6846    73.241058    63.428617    36.540988   -53088.151   -309910.98 
     190    969.81122    169585.89    73.216866    73.216866    36.528918          120   -20727.155   -18718.325   -114516.14    -815.0975   -2971.9504   -2431.9296    73.216866    63.407666    36.528918   -51320.539   -309884.46 
     200    987.25285    169420.87     73.19311     73.19311    36.517066          120   -16582.832   -16229.333    -99315.26   -1486.2744   -2138.0969   -2086.5203     73.19311    63.387093    36.517066   -44042.475    -309945.7 
     210    1018.4052    169260.31     73.16998     73.16998    36.505526          120   -12448.503   -12762.805   -80155.879   -1748.8049   -1878.8717   -2530.4502     73.16998    63.367062    36.505526   -35122.396   -310033.71 
     220     1002.128    169105.61    73.147682    73.147683    36.494402          120   -9988.4744   -9086.6269   -63702.352   -2164.1865   -1326.0767   -3327.9929    73.147682    63.347752    36.494402   -27592.484   -310030.33 
     230    987.03784    168957.63    73.126338    73.126339    36.483753          120   -11324.288   -10028.656   -55558.779   -1308.1638   -629.75175    -4897.467    73.126338    63.329267    36.483753   -25637.241   -310027.43 
     240    979.31683    168816.07     73.10591    73.105911    36.473561          120   -12769.831   -11327.895   -54230.445   -1178.8052   -1151.0905   -5825.4469     73.10591    63.311576    36.473561    -26109.39   -310039.19 
     250    998.12098    168679.99    73.086262    73.086262    36.463758          120   -15090.523   -14725.843   -63349.462   -129.20574   -739.61793   -4988.8999    73.086262     63.29456    36.463758   -31055.276   -310102.69 
     260    1003.3296    168547.75    73.067157    73.067158    36.454227          120    -16943.65   -16722.669   -74621.866   -67.053042   -1567.5131   -4984.1263    73.067157    63.278015    36.454227   -36096.062   -310141.23 
     270    989.84448    168417.72    73.048363    73.048363     36.44485          120   -17453.381   -18528.707   -84332.306    1091.4073   -1482.8936   -4295.5738    73.048363    63.261739     36.44485   -40104.798   -310145.07 
     280    975.65238    168288.63    73.029694    73.029695    36.435536          120   -17514.984   -18016.327   -88919.932    878.98061   -1463.7702   -3348.9797    73.029694    63.245571    36.435536   -41483.748   -310147.09 
     290     972.9923    168159.83    73.011059     73.01106    36.426239          120    -15111.09   -14723.871   -85695.896    1102.5591    -1570.014   -2985.1519    73.011059    63.229433    36.426239   -38510.286   -310169.78 
     300    976.33878    168031.56    72.992491    72.992491    36.416975          120    -11015.36    -11090.88   -77172.128    -72.29353   -1762.7776   -3137.0835    72.992491    63.213352    36.416975   -33092.789   -310203.08 
     310    974.57773    167904.53    72.974092    72.974093    36.407795          120   -8010.7751   -8661.7477   -66574.046   -960.99284   -1825.8685   -3244.1005    72.974092    63.197418    36.407795   -27748.856   -310226.73 
     320    960.74478    167779.47     72.95597    72.955971    36.398754          120   -6403.6347   -6584.3138   -57128.838   -27.123285   -505.34242   -3149.9844     72.95597    63.181724    36.398754   -23372.262   -310227.09 
     330    949.20658    167656.88    72.938197    72.938197    36.389887          120   -5527.4426   -5720.0695   -51382.268    602.54848   -1224.0335   -4030.1929    72.938197    63.166332    36.389887   -20876.594   -310229.73 
     340    957.86574    167536.87    72.920789    72.920789    36.381201          120   -5675.5263   -5362.8392   -54045.758    809.17828   -1275.0622   -3969.8842    72.920789    63.151256    36.381201   -21694.708    -310271.5 
     350    957.52249    167418.95    72.903677    72.903678    36.372664          120   -7652.5455   -5257.5403     -62383.4    865.96175    15.249498   -3287.5954    72.903677    63.136437    36.372664   -25097.829   -310296.86 
     360    947.33003    167302.23     72.88673    72.886731    36.364209          120   -7882.1433   -6777.1521   -71254.183    1105.2279    5.3620309   -2613.5157     72.88673    63.121761    36.364209   -28637.826   -310302.98 
     370     932.9851    167185.86    72.869828    72.869828    36.355776          120   -6791.4224   -6943.4161   -74634.385    51.374791   -1342.2221   -2436.6119    72.869828    63.107123    36.355776   -29456.408   -310300.83 
     380    938.45576    167069.56    72.852927    72.852928    36.347344          120   -6553.0487   -4250.4625   -72068.231   -663.98328   -936.80705   -3165.0197    72.852927    63.092486    36.347344   -27623.914   -310336.35 
     390    933.07114    166953.61    72.836069     72.83607    36.338934          120   -3774.6151   -2638.5231   -66044.533   -396.47866   -1092.0398   -3813.2298    72.836069    63.077887    36.338934   -24152.557   -310350.01 
     400    924.09041    166838.58    72.819337    72.819338    36.330586          120   -1790.9097   -1147.1633   -60172.469    -574.3826   -1158.0909   -4361.9035    72.819337    63.063397    36.330586   -21036.847    -310356.2 
     410    923.93614    166725.03    72.802813    72.802813    36.322342          120   -601.60293    1443.2959    -53694.71    7.1926795   -1075.0045   -3834.2212    72.802813    63.049086    36.322342   -17617.672   -310379.48 
     420    921.93786     166613.5    72.786576    72.786577    36.314241          120   -558.83186    2285.1274   -49589.885    1160.4085   -694.42669   -2268.9365    72.786576    63.035025    36.314241    -15954.53   -310399.62 
     430    913.52551    166504.24    72.770663    72.770663    36.306302          120   -400.57682    2355.9611   -48674.302    734.60421   -573.46843   -1660.6828    72.770663    63.021243    36.306302   -15572.972   -310405.73 
     440     917.9973    166397.18    72.755063    72.755063    36.298518          120   -674.30024    1717.0653   -52448.296   0.84288117   -980.74814   -1427.7098    72.755063    63.007733    36.298518   -17135.177   -310437.71 
     450     911.5575    166291.93     72.73972     72.73972    36.290864          120   -1794.9405    488.94084   -58114.101   -1079.5776   -1305.7007   -2175.4491     72.73972    62.994446    36.290864     -19806.7   -310447.58 
     460    910.46498    166187.96    72.724556    72.724557    36.283298          120    117.57145    1230.2923   -61219.496    -618.3786   -977.88479   -2234.1743    72.724556    62.981314    36.283298   -19957.211   -310468.71 
     470     893.2478    166085.16    72.709558    72.709558    36.275815          120    1890.2294    3583.9215   -60401.828   -423.69137   -1242.1575   -2365.4669    72.709558    62.968325    36.275815   -18309.226    -310457.4 
     480    888.22406    165983.77    72.694759     72.69476    36.268432          120    2244.2336    5455.4689   -56608.128    354.63513   -1357.0976   -2609.6059    72.694759    62.955509    36.268432   -16302.808   -310469.04 
     490    887.05764    165884.19    72.680219    72.680219    36.261178          120    4941.1735    8317.2584   -51935.619    134.07985    -1110.036   -745.43459    72.680219    62.942916    36.261178   -12892.396   -310486.66 
     500    880.52766    165786.97    72.666018    72.666019    36.254093          120    6689.1483    9977.9327   -47679.706    537.43799   -1221.8214    -1241.948    72.666018    62.930618    36.254093   -10337.542   -310493.17 
     510    879.60259    165692.48    72.652209     72.65221    36.247203          120    5312.7575    8768.5928   -45849.744    529.55689   -1339.1171   -1124.7827    72.652209     62.91866    36.247203   -10589.465    -310511.2 
     520    879.40163    165600.58    72.638776    72.638776    36.240501          120    5577.4869    9117.2608   -46282.417    1156.1926   -682.71794    -1621.584    72.638776    62.907026    36.240501   -10529.223   -310529.93 
     530    881.29724    165511.19    72.625703    72.625704    36.233979          120    6617.7806    11139.995    -47108.93    1145.2051   -74.604947   -1663.4757    72.625703    62.895705    36.233979   -9783.7181   -310552.88 
     540    882.85601     165424.3    72.612992    72.612993    36.227637          120    8005.0631    10504.669   -49614.785    254.44981   -1583.0194   -457.50652    72.612992    62.884696    36.227637   -10368.351   -310574.65 
     550    867.30575    165339.73    72.600615    72.600616    36.221463          120    9190.7519    11058.456   -49455.724    314.71913   -2010.4272   -1079.1849    72.600615    62.873978    36.221463   -9735.5052   -310564.41 
     560    869.53049    165257.44    72.588568    72.588569    36.215452          120    10217.203    12710.781   -49218.504    320.35121   -1269.1747   -2599.4347    72.588568    62.863545    36.215452   -8763.5065   -310587.47 
     570    859.74519    165177.55     72.57687    72.576871    36.209616          120    11932.525    14732.798   -45169.419    187.92097    -1374.422   -1368.7806     72.57687    62.853414    36.209616   -6168.0319   -310586.66 
     580    865.38589    165100.38    72.565566    72.565567    36.203976          120    13097.261    14279.752   -43471.997    353.46713   -1466.8699   -457.53351    72.565566    62.843624    36.203976   -5364.9946   -310614.22 
     590    852.01094    165025.97    72.554662    72.554662    36.198536          120    13278.175    13799.415   -41629.395      707.247    -745.3418   -1171.4831    72.554662    62.834181    36.198536   -4850.6015   -310605.29 
     600    851.44716     164954.3    72.544158    72.544158    36.193295          120    13802.576     16523.28   -40791.295    73.923968   -611.43195   -1152.8625    72.544158    62.825084    36.193295   -3488.4797   -310620.61 
     610    847.37411    164885.45    72.534062    72.534063    36.188258          120    13207.726    17202.592   -40178.014    701.03203   -246.45301     -622.484    72.534062    62.816341    36.188258   -3255.8987    -310628.5 
     620    849.88333    164819.35    72.524369     72.52437    36.183422          120     15651.19    17243.674   -38639.504     937.8191   -59.348923   -121.36635    72.524369    62.807947    36.183422     -1914.88   -310649.28 
     630    842.05215    164756.07    72.515086    72.515086    36.178791          120    15278.499    18595.053   -39208.791    725.43018   -1297.5699    -487.3206    72.515086    62.799907    36.178791   -1778.4132   -310649.73 
     640    844.89116    164695.45    72.506192    72.506193    36.174353          120    15207.753    17469.968   -42370.596    1207.9288   -1948.8302   -534.04386    72.506192    62.792205    36.174353   -3230.9581   -310670.77 
     650    835.02396    164637.16    72.497637    72.497638    36.170085          120    14742.575     17745.34   -41602.748    2014.1806   -1573.5839   -2034.8215    72.497637    62.784796    36.170085   -3038.2776   -310667.57 
     660    838.07017    164581.06    72.489401    72.489401    36.165976          120    15218.247    18185.286   -40645.599    1326.8286    -1827.649    -2466.886    72.489401    62.777663    36.165976   -2414.0221   -310687.22 
     670    820.65149    164527.13    72.481482    72.481483    36.162025          120     16796.69    18903.522   -40111.529    1087.9321   -452.71736   -1048.1087    72.481482    62.770805    36.162025   -1470.4392   -310667.83 
     680    825.18324    164475.42    72.473889     72.47389    36.158237          120    18632.364    18599.824   -38407.397    1365.4607    -1906.499   -619.96088    72.473889     62.76423    36.158237   -391.73676   -310690.36 
     690    823.60996    164426.04    72.466634    72.466635    36.154618          120    19349.903    19960.086   -36465.463    2053.7583   -2514.1268   -770.60368    72.466634    62.757947    36.154618    948.17551   -310699.96 
     700    831.35678    164379.06    72.459732    72.459733    36.151174          120    18711.754    19669.909   -35951.329    1616.8002   -1245.4235   -690.75237    72.459732    62.751969    36.151174    810.11127   -310727.84 
     710    823.99517    164334.39    72.453167    72.453168    36.147899          120    18727.636    20777.469   -36547.938    1563.9305   -1364.5785    723.32192    72.453167    62.746284    36.147899    985.72233   -310726.32 
     720    825.67903    164291.92    72.446926    72.446927    36.144785          120    17805.953    21601.795   -35788.634     1270.898   -1366.9075    1177.7022    72.446926    62.740879    36.144785    1206.3714   -310741.82 
     730     816.7318    164251.58    72.440996    72.440996    36.141826          120    18531.366    21498.837   -35858.363    1389.8652   -1918.8123    634.91865    72.440996    62.735743    36.141826    1390.6136   -310736.99 
     740    816.86887    164213.28    72.435365    72.435365    36.139017          120    18283.256    22148.567   -35646.406     2182.723   -1848.0239   -330.56635    72.435365    62.730867    36.139017    1595.1388   -310748.54 
     750    811.02663    164176.94    72.430021    72.430022    36.136351          120    18454.746    22092.901   -36114.607    2473.0929   -2006.7614   -1047.0055    72.430021    62.726239    36.136351      1477.68   -310748.41 
     760    813.89023    164142.45     72.42495     72.42495     36.13382          120    18298.382    21491.456   -36053.932    1771.0556   -982.70188   -1953.3441     72.42495    62.721847     36.13382    1245.3019   -310764.58 
     770    813.38335    164109.68     72.42013     72.42013    36.131416          120    17950.771    21871.593   -37025.998    1995.4849   -1181.8641     -2185.66     72.42013    62.717673    36.131416    932.12179   -310774.78 
     780    806.85799    164078.49    72.415541    72.415541    36.129126          120    18973.998    22154.992   -35453.764    1220.5222   -1370.7905   -808.48036    72.415541    62.713699    36.129126     1891.742    -310772.6 
     790    806.19455    164048.98    72.411199    72.411199     36.12696          120    21420.103    24339.944   -33600.972    934.37127   -2081.5688    -442.0072    72.411199    62.709938     36.12696    4053.0253   -310781.25 
     800    804.49121    164021.42    72.407144    72.407145    36.124937          120    20686.724    25035.997   -32370.667    43.183112   -1634.9953     343.8881    72.407144    62.706427    36.124937    4450.6848   -310787.62 
     810    799.41643    163995.84    72.403379     72.40338    36.123059          120    20344.933    24707.021   -32530.502    4.8328955   -2551.7265    1731.5121    72.403379    62.703166    36.123059    4173.8175   -310786.48 
     820     803.8076    163972.07    72.399881    72.399882    36.121314          120    19746.258    24891.199   -33162.921   -1144.2074   -2008.0066    507.83251    72.399881    62.700137    36.121314    3824.8452   -310804.24 
     830    791.12561    163949.97    72.396629     72.39663    36.119691          120    20159.335    23726.296   -34926.149   -511.89069    -1445.685    116.69296    72.396629    62.697321    36.119691    2986.4941   -310787.91 
     840    789.42448    163929.33     72.39359     72.39359    36.118175          120    20043.243     23061.57    -35680.73     967.5709   -1582.3769    424.60375     72.39359    62.694689    36.118175    2474.6945    -310792.4 
     850     795.3166    163909.98    72.390742    72.390742    36.116754          120    20547.886    24094.734   -34062.749    1226.9382   -1778.8371    89.863496    72.390742    62.692222    36.116754    3526.6236   -310810.13 
     860    798.18538    163892.07    72.388105    72.388106    36.115438          120    21955.342    26638.211   -33723.799    1966.3045   -1254.2223   -523.09793    72.388105    62.689939    36.115438    4956.5846   -310822.53 
     870    794.27089    163875.79    72.385708    72.385709    36.114242          120    21937.676    27214.849   -32308.561    1207.4648   -290.14524   -2085.7641    72.385708    62.687863    36.114242    5614.6547   -310821.39 
     880    793.12086    163861.19    72.383559    72.383559     36.11317          120    22198.328    26518.079   -30491.301    901.35494   -1334.5637   -2381.5734    72.383559    62.686001     36.11317     6075.035   -310824.83 
     890    791.57618    163848.29     72.38166     72.38166    36.112222          120    23820.291    26615.143    -31444.05     968.4234   -2343.1654   -1530.0675     72.38166    62.684357    36.112222    6330.4613   -310827.68 
     900    786.97708    163837.07    72.380007    72.380008    36.111398          120    23924.802    26923.452   -33143.496    979.50145   -2946.8552   -330.64378    72.380007    62.682925    36.111398    5901.5863   -310823.69 
     910    784.97752     163827.4    72.378583    72.378583    36.110687          120    23048.062    26117.224   -32751.166    728.21535   -2312.2933    224.22334    72.378583    62.681692    36.110687    5471.3736   -310824.06 
     920    789.05124    163819.13    72.377365    72.377366     36.11008          120    22834.127    26239.083   -32780.991    1046.1369   -2570.7056    848.58622    72.377365    62.680638     36.11008    5430.7396   -310836.23 
     930    791.52706    163812.22    72.376347    72.376348    36.109572          120     23592.09    26245.905   -32183.758    1611.2445    -3014.192    1259.8585    72.376347    62.679756    36.109572     5884.746   -310844.03 
     940    783.56167    163806.67    72.375529     72.37553    36.109164          120    22992.196    27381.957   -33163.579    1840.8763    -2236.959    530.27116    72.375529    62.679048    36.109164     5736.858   -310831.84 
     950    789.83541    163802.44    72.374906    72.374907    36.108853          120    24636.763    27604.811   -31635.489    1785.9666   -1540.3518   -104.06829    72.374906    62.678508    36.108853    6868.6952   -310846.34 
     960    789.39298    163799.64    72.374495    72.374495    36.108648          120     23603.17    27362.945   -31425.825    1145.2159   -1324.3147   -175.14243    72.374495    62.678152    36.108648    6513.4301   -310847.05 
     970    780.23444    163798.18     72.37428     72.37428    36.108541          120    22726.385    26150.738   -33839.125    1541.7929   -29.842455   -186.33981     72.37428    62.677965    36.108541    5012.6661   -310831.69 
     980    777.04208    163797.74    72.374215    72.374216    36.108508          120    21904.505    26092.974   -34026.818    512.43977   -1267.2061   -425.27821    72.374215     62.67791    36.108508    4656.8872   -310826.56 
     990    786.83189    163798.22    72.374285    72.374285    36.108543          120    22010.456    26560.533   -33661.489    1679.4921   -2833.3682   -602.64409    72.374285     62.67797    36.108543    4969.8332    -310845.5 
    1000    790.61497    163799.64    72.374494    72.374495    36.108647          120    22865.489    26908.108   -32618.626    1703.9905   -2879.1531   -314.08994    72.374494    62.678151    36.108647    5718.3238   -310852.65 
Loop time of 386.199 on 1 procs for 1000 steps with 14848 atoms

Performance: 0.224 ns/day, 107.277 hours/ns, 2.589 timesteps/s
100.0% CPU use with 1 MPI tasks x no OpenMP threads

MPI task timing breakdown:
Section |  min time  |  avg time  |  max time  |%varavg| %total
---------------------------------------------------------------
Pair    | 290.76     | 290.76     | 290.76     |   0.0 | 75.29
Bond    | 0.00053835 | 0.00053835 | 0.00053835 |   0.0 |  0.00
Kspace  | 13.643     | 13.643     | 13.643     |   0.0 |  3.53
Neigh   | 73.168     | 73.168     | 73.168     |   0.0 | 18.95
Comm    | 0.54222    | 0.54222    | 0.54222    |   0.0 |  0.14
Output  | 0.012974   | 0.012974   | 0.012974   |   0.0 |  0.00
Modify  | 7.9297     | 7.9297     | 7.9297     |   0.0 |  2.05
Other   |            | 0.1384     |            |       |  0.04

Nlocal:    14848 ave 14848 max 14848 min
Histogram: 1 0 0 0 0 0 0 0 0 0
Nghost:    46686 ave 46686 max 46686 min
Histogram: 1 0 0 0 0 0 0 0 0 0
Neighs:    1.00471e+07 ave 1.00471e+07 max 1.00471e+07 min
Histogram: 1 0 0 0 0 0 0 0 0 0

Total # of neighbors = 10047127
Ave neighs/atom = 676.665
Ave special neighs/atom = 0
Neighbor list builds = 229
Dangerous builds = 0
PPPM initialization ...
  using 12-bit tables for long-range coulomb (../kspace.cpp:321)
  G vector (1/distance) = 0.202548
  grid = 36 50 24
  stencil order = 5
  estimated absolute RMS force accuracy = 0.0010012
  estimated relative force accuracy = 6.95292e-05
  using double precision FFTs
  3d grid and FFT values/proc = 65395 43200
Setting up Verlet run ...
  Unit style    : metal
  Current step  : 0
  Time step     : 0.001
Per MPI rank memory allocation (min/avg/max) = 151.5 | 151.5 | 151.5 Mbytes
Step Temp Volume Cella Cellb Cellc CellGamma Pxx Pyy Pzz Pxy Pxz Pyz Lx Ly Lz Press PotEng 
       0    790.61497    163799.64    72.374494    72.374495    36.108647          120    22875.715    26919.081   -32614.204    1704.0841    -2878.933   -314.12359    72.374494    62.678151    36.108647    5726.8639    -310852.5 
  100000    801.31003    165767.04    72.663106    72.663106     36.25264          120    21288.269    21587.336   -40069.799   -1807.0934   -3288.7423   -814.24141    72.663106    62.928096     36.25264    935.26853   -311001.09 
Loop time of 38499.1 on 1 procs for 100000 steps with 14848 atoms

Performance: 0.224 ns/day, 106.942 hours/ns, 2.597 timesteps/s
100.0% CPU use with 1 MPI tasks x no OpenMP threads

MPI task timing breakdown:
Section |  min time  |  avg time  |  max time  |%varavg| %total
---------------------------------------------------------------
Pair    | 29273      | 29273      | 29273      |   0.0 | 76.04
Bond    | 0.054209   | 0.054209   | 0.054209   |   0.0 |  0.00
Kspace  | 1412.7     | 1412.7     | 1412.7     |   0.0 |  3.67
Neigh   | 6933.7     | 6933.7     | 6933.7     |   0.0 | 18.01
Comm    | 53.713     | 53.713     | 53.713     |   0.0 |  0.14
Output  | 0.00012898 | 0.00012898 | 0.00012898 |   0.0 |  0.00
Modify  | 811.71     | 811.71     | 811.71     |   0.0 |  2.11
Other   |            | 14.35      |            |       |  0.04

Nlocal:    14848 ave 14848 max 14848 min
Histogram: 1 0 0 0 0 0 0 0 0 0
Nghost:    46436 ave 46436 max 46436 min
Histogram: 1 0 0 0 0 0 0 0 0 0
Neighs:    9.92666e+06 ave 9.92666e+06 max 9.92666e+06 min
Histogram: 1 0 0 0 0 0 0 0 0 0

Total # of neighbors = 9926656
Ave neighs/atom = 668.552
Ave special neighs/atom = 0
Neighbor list builds = 21132
Dangerous builds = 0
 
All done!
Total wall time: 10:48:06
