LAMMPS (16 Mar 2018)
Reading data file ...
  triclinic box = (0 0 0) to (9.208 7.97436 18.376) with tilt (-4.604 0 0)
  1 by 1 by 1 MPI processor grid
  reading atoms ...
  116 atoms
Finding 1-2 1-3 1-4 neighbors ...
  special bond factors lj:   0          0          0         
  special bond factors coul: 0          0          0         
  0 = max # of 1-2 neighbors
  0 = max # of 1-3 neighbors
  0 = max # of 1-4 neighbors
  1 = max # of special neighbors
Replicating atoms ...
  triclinic box = (0 0 0) to (73.664 63.7949 36.752) with tilt (-36.832 0 0)
  1 by 1 by 1 MPI processor grid
  14848 atoms
Finding 1-2 1-3 1-4 neighbors ...
  special bond factors lj:   0          0          0         
  special bond factors coul: 0          0          0         
  0 = max # of 1-2 neighbors
  0 = max # of 1-3 neighbors
  0 = max # of 1-4 neighbors
  1 = max # of special neighbors
  Time spent = 0.00398207 secs
PPPM initialization ...
WARNING: System is not charge neutral, net charge = -0.2048 (../kspace.cpp:302)
  using 12-bit tables for long-range coulomb (../kspace.cpp:321)
  G vector (1/distance) = 0.201681
  grid = 36 50 24
  stencil order = 5
  estimated absolute RMS force accuracy = 0.00105653
  estimated relative force accuracy = 7.33721e-05
  using double precision FFTs
  3d grid and FFT values/proc = 65395 43200
Neighbor list info ...
  update every 1 steps, delay 0 steps, check yes
  max neighbors/atom: 2000, page size: 100000
  master list distance cutoff = 15.3
  ghost atom cutoff = 15.3
  binsize = 7.65, bins = 15 9 5
  3 neighbor lists, perpetual/occasional/extra = 3 0 0
  (1) pair morse, perpetual
      attributes: half, newton on
      pair build: half/bin/newton/tri
      stencil: half/bin/3d/newton/tri
      bin: standard
  (2) pair buck, perpetual, copy from (1)
      attributes: half, newton on
      pair build: copy
      stencil: none
      bin: none
  (3) pair lj/cut/coul/long, perpetual, copy from (1)
      attributes: half, newton on
      pair build: copy
      stencil: none
      bin: none
Setting up Verlet run ...
  Unit style    : metal
  Current step  : 0
  Time step     : 0.001
Per MPI rank memory allocation (min/avg/max) = 145.7 | 145.7 | 145.7 Mbytes
Step Temp Volume Cella Cellb Cellc CellGamma Pxx Pyy Pzz Pxy Pxz Pyz Lx Ly Lz Press PotEng 
       0         1600    172711.88       73.664    73.664001       36.752          120   -185166.05   -185457.53   -256948.44    127.28178   -40.679024    54.418736       73.664    63.794896       36.752   -209190.67   -308813.33 
      10    963.40531    172700.76    73.662419     73.66242    36.751211          120   -169258.38   -169337.33   -213672.55    126.04305    -13.05382   -420.93823    73.662419    63.793527    36.751211   -184089.42   -307594.06 
      20    1287.3418    172669.54    73.657981    73.657981    36.748997          120    -147790.9    -148759.6   -148387.03    306.14767    124.74539   -722.24534    73.657981    63.789683    36.748997   -148312.51   -308211.23 
      30    1395.9169    172622.39    73.651275    73.651275    36.745651          120   -99111.858   -99745.638   -70694.505   -261.11337    -871.3422   -646.96942    73.651275    63.783876    36.745651   -89850.667    -308404.4 
      40    1181.1839    172565.45    73.643177    73.643177    36.741611          120   -57099.518   -58249.312   -4319.2905   -1853.2815   -688.89127    -491.4766    73.643177    63.776862    36.741611   -39889.374    -307970.8 
      50    1325.2041    172503.88    73.634416    73.634417     36.73724          120   -43038.395   -43942.378   -6790.0192   -453.00976    87.232757   -905.79794    73.634416    63.769276     36.73724   -31256.931   -308223.66 
      60    1503.0811    172438.79    73.625153    73.625154    36.732619          120   -43050.714    -42295.59   -55445.954   -1504.0306   -1340.9796   -901.96841    73.625153    63.761254    36.732619   -46930.752   -308541.43 
      70    1595.4361    172368.76    73.615185    73.615186    36.727646          120   -41218.385   -43578.878   -113132.87   -1944.1637   -2017.0156   -438.42643    73.615185    63.752621    36.727646    -65976.71   -308701.86 
      80    1484.8818    172291.87    73.604239    73.604239    36.722184          120   -43892.565   -46982.157   -149524.41    -1767.859   -1543.4615   -701.96949    73.604239    63.743141    36.722184   -80133.044   -308475.25 
      90    1315.0934    172206.78     73.59212    73.592121    36.716138          120   -42806.771   -43013.962   -155344.18   -923.81345   -2573.4198   -2215.8833     73.59212    63.732646    36.716138   -80388.304   -308133.23 
     100    1372.3502    172113.69    73.578856    73.578857     36.70952          120   -27263.946   -26092.093   -134381.31   -1477.1321   -2249.0672   -2488.3793    73.578856    63.721159     36.70952   -62579.118   -308227.38 
     110    1491.9142    172014.55    73.564726    73.564727    36.702471          120   -10384.839   -10333.806   -101574.15   -1976.5351   -854.13837   -2874.0932    73.564726    63.708922    36.702471   -40764.265   -308438.61 
     120      1516.81    171911.88    73.550087    73.550088    36.695167          120   -1955.4034   -2412.9748   -62714.893   -1399.9574    223.91558   -1577.0601    73.550087    63.696245    36.695167    -22361.09   -308468.16 
     130    1477.2905    171807.85    73.535248    73.535249    36.687764          120   -814.98774   -1259.7395    -32776.52    166.35465   -353.63206   -1666.2607    73.535248    63.683394    36.687764   -11617.082   -308375.67 
     140    1450.2211     171703.8    73.520401    73.520401    36.680356          120   -4567.6168   -5551.7975   -21941.855   -32.397592   -1306.9463    -2923.566    73.520401    63.670535    36.680356    -10687.09   -308306.58 
     150    1478.5125    171600.01    73.505584    73.505584    36.672964          120   -10834.518   -11940.586   -36665.822   -1133.3476   -1570.5461   -1874.9254    73.505584    63.657704    36.672964   -19813.642   -308344.06 
     160    1532.3223    171495.75    73.490694    73.490694    36.665535          120   -18228.173   -16091.049   -63360.272   -912.22913   -1496.0642   -3509.0484    73.490694    63.644808    36.665535   -32559.831   -308431.11 
     170    1548.8182    171389.88    73.475568    73.475569    36.657989          120    -19716.01   -20873.931   -90570.056   -1020.8603    -3575.834   -3627.0489    73.475568    63.631709    36.657989   -43719.999   -308448.01 
     180      1511.82    171281.52     73.46008     73.46008    36.650261          120   -17237.537   -19844.645   -105597.08    491.88793   -3321.1208   -3876.6329     73.46008    63.618296    36.650261   -47559.754   -308364.76 
     190    1497.0091    171170.49    73.444203    73.444204     36.64234          120    -17224.88   -15606.622   -107514.91    601.02524   -5299.5355   -3676.3927    73.444203    63.604547     36.64234   -46782.136   -308324.08 
     200    1517.2727    171057.18    73.427995    73.427995    36.634254          120   -12948.631   -14459.092   -95937.304   -970.33005   -6026.3006   -4328.0036    73.427995    63.590509    36.634254   -41115.009   -308349.08 
     210    1539.3106    170942.48    73.411579    73.411579    36.626064          120   -9104.2444   -9681.0962   -79399.059   -25.506374   -3653.1156   -4337.0827    73.411579    63.576293    36.626064   -32728.133   -308376.76 
     220    1550.7283    170827.51    73.395117    73.395118    36.617851          120   -6334.1283   -6400.1198   -65320.745   -2281.0526   -2234.5687   -4388.5109    73.395117    63.562037    36.617851   -26018.331   -308384.51 
     230    1545.3225    170713.22    73.378746    73.378746    36.609683          120   -5287.1686   -5694.5385   -54824.657   -2190.6435   -2339.2697   -5827.0207    73.378746    63.547858    36.609683   -21935.455    -308359.5 
     240    1548.3621    170600.23    73.362553    73.362553    36.601604          120   -5830.8453   -6482.7485   -53566.637   -1282.3617   -1834.7544   -5647.9099    73.362553    63.533835    36.601604   -21960.077   -308351.96 
     250    1558.2026    170488.76     73.34657    73.346571     36.59363          120   -6309.2907   -7065.1887   -56800.376   -886.37101   -3375.1622   -5489.2352     73.34657    63.519994     36.59363   -23391.618   -308357.22 
     260    1590.0238    170378.78    73.330796    73.330796     36.58576          120   -8008.6026   -9604.2598   -66711.307   -1233.5581   -3482.8018    -4621.344    73.330796    63.506333     36.58576   -28108.056   -308406.21 
     270    1607.4681    170269.97    73.315181    73.315182     36.57797          120   -11467.323   -11794.696   -77934.763   -1168.7928   -3213.8231   -4894.4864    73.315181     63.49281     36.57797   -33732.261   -308429.32 
     280    1589.0079     170161.9    73.299667    73.299668    36.570229          120   -14197.922   -12133.229    -84454.96   -894.24987   -4198.0225   -3407.9916    73.299667    63.479375    36.570229   -36928.703   -308384.98 
     290    1594.8216    170054.42    73.284231    73.284231    36.562528          120   -12458.176    -9021.235    -82841.53   -2251.4454   -3160.8031    -2838.775    73.284231    63.466006    36.562528   -34773.647   -308386.97 
     300    1612.4083    169947.84    73.268918    73.268918    36.554888          120   -7546.0662   -6961.4875   -76522.143   -2207.1981   -2984.2905   -3484.5266    73.268918    63.452745    36.554888   -30343.232   -308412.08 
     310      1604.99    169842.73     73.25381     73.25381     36.54735          120   -2473.7378   -4465.3165    -66072.68   -1777.9914   -1773.0499   -3844.0174     73.25381    63.439661     36.54735   -24337.245   -308389.65 
     320    1604.7947    169739.73    73.238998    73.238999    36.539961          120   -1749.8536   -1164.6669   -57357.228   -201.67755   -1756.1167   -3146.0364    73.238998    63.426834    36.539961   -20090.583   -308381.78 
     330    1599.9424    169639.31    73.224552    73.224553    36.532753          120    -501.8432   -316.42714   -50338.457    757.49513   -1987.6695    -2574.036    73.224552    63.414323    36.532753   -17052.242   -308364.53 
     340    1609.5513    169541.71    73.210506    73.210507    36.525746          120    975.80346    172.49315   -50230.981    77.897595   -3036.2833   -4237.3026    73.210506    63.402159    36.525746   -16360.895   -308375.03 
     350    1620.2451    169446.91    73.196859     73.19686    36.518937          120   -378.86583   -1326.9067   -55069.305   -1445.1898   -1798.3701   -4118.2697    73.196859     63.39034    36.518937   -18925.026   -308389.26 
     360    1633.0632    169354.61    73.183566    73.183567    36.512305          120    -1021.138   -1147.8544   -62553.673   -1338.0207   -3570.5481   -4006.0433    73.183566    63.378828    36.512305   -21574.222   -308408.25 
     370    1624.1027    169264.44    73.170576    73.170577    36.505824          120   -37.915598    1286.8228   -66355.282   -1797.0263   -4046.0511   -4122.6991    73.170576    63.367578    36.505824   -21702.125   -308387.07 
     380    1627.3495    169176.28     73.15787     73.15787    36.499485          120   -548.70513    1917.5957   -67554.807   -2003.5847     -3976.31   -1483.9453     73.15787    63.356574    36.499485   -22061.972   -308390.13 
     390    1625.2511    169089.99    73.145429     73.14543    36.493278          120   -628.66421    1233.6458   -64885.933   -2672.4844   -3018.2306   -1717.6251    73.145429      63.3458    36.493278   -21426.984   -308384.87 
     400    1622.4498    169005.53    73.133249    73.133249    36.487201          120    1397.9338    1462.9991   -59900.735   -2430.2289   -1786.8001   -194.73436    73.133249    63.335252    36.487201   -19013.267   -308377.77 
     410    1631.8056    168923.03    73.121347    73.121348    36.481263          120    3361.2675    4146.0558   -55163.122   -2066.0647   -1305.8766   -349.71855    73.121347    63.324945    36.481263   -15885.266   -308394.21 
     420    1640.5065    168842.69    73.109753    73.109754    36.475478          120    4969.7485    7664.8392   -47047.389   -1883.9475   -1480.5631   -966.46158    73.109753    63.314904    36.475478   -11470.934   -308412.37 
     430    1626.7828    168764.76    73.098503    73.098504    36.469866          120    6063.7192    9258.6474   -45560.468   -1391.4873   -3362.9509   -1657.5854    73.098503    63.305161    36.469866   -10079.367    -308387.2 
     440    1643.4844     168689.2    73.087593    73.087593    36.464422          120    5912.5134    6203.6233   -49443.089   -2648.8904   -2453.4177   -805.79545    73.087593    63.295713    36.464422   -12442.317   -308422.87 
     450    1637.0994    168615.67     73.07697    73.076971    36.459123          120    4700.0202    5787.4296   -53405.336   -2054.2779   -761.66094   -885.21616     73.07697    63.286514    36.459123   -14305.962   -308414.88 
     460    1645.5907    168543.79    73.066585    73.066586    36.453942          120    4402.2724    4495.4294   -56070.311   -1232.3997    -2450.309    463.86121    73.066585     63.27752    36.453942   -15724.203   -308437.88 
     470    1637.9761    168473.31      73.0564      73.0564     36.44886          120    7150.5453    4959.1931   -56511.321   -1546.5188   -4674.8554    592.82206      73.0564    63.268699     36.44886   -14800.528   -308431.46 
     480    1642.9106    168404.16    73.046402    73.046403    36.443872          120    4921.9809    6346.4404   -57207.004   -844.61395   -3702.5183    365.18032    73.046402    63.260041    36.443872   -15312.861   -308450.28 
     490    1631.6669     168336.2    73.036576    73.036577    36.438969          120    6826.5819    8783.0659   -54464.663   -1127.4899   -3453.0804    382.14514    73.036576    63.251531    36.438969   -12951.672   -308439.15 
     500     1628.869    168269.52    73.026931    73.026932    36.434157          120    5666.4037    11105.505   -50846.798    -1417.189   -2358.0019   -62.888957    73.026931    63.243178    36.434157   -11358.296   -308445.28 
     510    1622.2275    168204.19    73.017478    73.017479    36.429441          120     7861.273    10968.139   -48804.016   -233.78829   -1026.5175   -224.06084    73.017478    63.234992    36.429441   -9991.5346   -308443.83 
     520    1621.7125     168140.2    73.008218    73.008219    36.424821          120    9700.6473    7050.0366   -48525.868   -140.66032   -1744.9883   -1098.5945    73.008218    63.226972    36.424821   -10591.728   -308455.11 
     530    1626.0522    168077.43    72.999132    72.999133    36.420288          120     10038.02    8043.8868   -46797.253   -1265.5547   -553.73997    555.40323    72.999132    63.219104    36.420288   -9571.7819   -308475.98 
     540     1628.292    168015.85    72.990215    72.990216    36.415839          120     9852.116    11144.933   -48024.089   -794.03609   -783.80641    1789.0406    72.990215    63.211381    36.415839   -9009.0134   -308492.35 
     550     1616.482    167955.41    72.981462    72.981462    36.411472          120    10035.013    9838.6776   -51141.152   -777.11982   -1484.2543    1278.2708    72.981462    63.203801    36.411472   -10422.487   -308481.85 
     560    1617.8091    167895.91    72.972842    72.972843    36.407172          120    9246.7138    10584.349   -52024.779   -1405.4598   -1782.6559   -47.084535    72.972842    63.196336    36.407172   -10731.239    -308497.9 
     570    1610.1023    167837.23    72.964341    72.964341     36.40293          120     11557.68    9842.9567    -50101.29   -65.935268   -1811.9727    -549.6031    72.964341    63.188973     36.40293   -9566.8845   -308494.76 
     580    1613.9886     167779.4     72.95596    72.955961    36.398749          120    12059.782    10830.567   -47740.114    212.04796   -2891.8907   -857.91746     72.95596    63.181716    36.398749    -8283.255   -308513.56 
     590    1621.2762    167722.51    72.947713    72.947713    36.394634          120    13898.251    12422.141    -44062.86    685.88188   -2782.4977   -266.59304    72.947713    63.174573    36.394634   -5914.1562   -308538.94 
     600    1621.1961    167666.69     72.93962     72.93962    36.390597          120    15303.427    12737.718   -43183.277   -278.91924   -2639.8757    113.83109     72.93962    63.167564    36.390597   -5047.3771   -308550.15 
     610    1616.9647    167611.98    72.931684    72.931685    36.386637          120    14852.284    11258.267   -41224.079    705.59054   -2481.7036    269.74964    72.931684    63.160692    36.386637   -5037.8426   -308553.13 
     620    1624.6236     167558.3    72.923898    72.923899    36.382753          120    14680.452    11479.986   -42677.381    937.47054     -340.674    1383.3719    72.923898    63.153949    36.382753   -5505.6477   -308579.43 
     630    1607.6617    167505.56    72.916246    72.916247    36.378935          120    13005.647    12839.671   -43466.199    169.62154   -619.69899    792.14546    72.916246    63.147322    36.378935   -5873.6272   -308557.74 
     640    1598.0982    167453.68    72.908718    72.908718    36.375179          120    15496.722    14935.529    -43741.84    2675.3583   -1062.1908     699.1593    72.908718    63.140802    36.375179   -4436.5298   -308550.12 
     650     1616.292    167402.73    72.901322    72.901322    36.371489          120    15863.608    16673.095   -43675.012    1034.7094   -246.08496    581.42037    72.901322    63.134397    36.371489   -3712.7696   -308596.53 
     660    1614.8481    167352.74    72.894064    72.894065    36.367868          120    17296.821     16400.29   -42794.837    694.41055    15.783737   -223.95261    72.894064    63.128112    36.367868   -3032.5755   -308603.74 
     670    1594.5053    167303.73    72.886949     72.88695    36.364318          120    18839.738    16420.807   -40889.961    603.82015    601.85431   -1007.9615    72.886949     63.12195    36.364318   -1876.4721   -308574.71 
     680    1592.5753    167255.75     72.87998    72.879981    36.360842          120    19247.442    15422.915   -41717.077   -1379.8198   -738.97344   -1304.8049     72.87998    63.115915    36.360842   -2348.9065   -308580.78 
     690    1610.1166    167208.71    72.873147    72.873148    36.357433          120    17884.804     15728.68   -42923.445   -2352.8659   -2150.9457   -1528.0247    72.873147    63.109998    36.357433   -3103.3206   -308624.45 
     700    1601.6895    167162.54    72.866439     72.86644    36.354086          120    16038.079    17190.236   -40543.287   -1168.5516   -1266.2814   -928.25212    72.866439    63.104188    36.354086   -2438.3239   -308617.25 
     710    1611.0228    167117.25    72.859858    72.859858    36.350802          120    19258.787    17316.839   -38284.991    276.61954   -2833.7907   -1504.9396    72.859858    63.098488    36.350802    -569.7883   -308642.47 
     720    1590.8715    167072.99    72.853426    72.853426    36.347593          120    23665.303    19583.263   -33868.163    513.17809   -869.92651   -1354.9247    72.853426    63.092918    36.347593    3126.8009   -308611.59 
     730    1600.7094    167030.05    72.847183    72.847184    36.344479          120    22630.101    21452.533   -33024.995    1095.8557   -267.31021   -1787.4247    72.847183    63.087512    36.344479    3685.8793   -308639.01 
     740    1615.7027    166988.47    72.841138    72.841138    36.341463          120    22886.066     20467.72   -35199.623    88.087709    1116.1695    283.57994    72.841138    63.082276    36.341463    2718.0545   -308675.89 
     750    1577.7363    166948.11     72.83527     72.83527    36.338535          120    21994.718    21209.738   -39296.754   -395.83199    197.62995    1010.9146     72.83527    63.077195    36.338535    1302.5672   -308609.92 
     760    1599.0066     166908.8    72.829552    72.829553    36.335682          120    21712.507     19943.22   -40080.333    678.12201   -692.41285   -484.35388    72.829552    63.072243    36.335682    525.13118   -308658.94 
     770    1583.2953    166870.43     72.82397    72.823971    36.332897          120    20341.832    22554.867    -38663.73    222.56259    52.245325   -2267.1921     72.82397    63.067409    36.332897    1410.9895   -308634.76 
     780    1595.8912    166833.07    72.818535    72.818536    36.330186          120    22275.068    24836.724   -35044.858   -231.72152   -2134.5977   -380.21712    72.818535    63.062702    36.330186    4022.3113   -308665.33 
     790    1594.0461    166796.88     72.81327    72.813271    36.327559          120    23347.535    23280.302   -36692.899    1619.2719   -3184.2154   -335.14703     72.81327    63.058143    36.327559    3311.6463   -308667.41 
     800    1590.4634    166761.82    72.808168    72.808168    36.325013          120    22134.583    23007.661   -36265.638    1281.6516   -1459.4742   -512.32088    72.808168    63.053724    36.325013    2958.8687   -308665.93 
     810    1588.1702    166727.82     72.80322     72.80322    36.322545          120    22026.561    25458.494   -33926.478     792.8848   -1741.1277    6.3961167     72.80322    63.049439    36.322545    4519.5256   -308667.03 
     820     1603.751    166694.99    72.798441    72.798442    36.320161          120    22530.532    25560.273   -31854.545   -359.20446   -1755.3541   -95.991643    72.798441      63.0453    36.320161    5412.0865   -308701.47 
     830    1593.4792    166663.41    72.793843    72.793843    36.317866          120    25339.479    27006.108   -32364.641   -129.45315   -1306.9807    565.06288    72.793843    63.041318    36.317866    6660.3151   -308686.62 
     840    1597.8204    166633.13    72.789435    72.789435    36.315667          120    25736.503    25550.233   -31957.678   -982.94581   -2112.0701    153.17617    72.789435      63.0375    36.315667    6443.0193   -308699.31 
     850    1586.7949    166604.14    72.785213    72.785214    36.313561          120    25932.865    26020.166   -32799.207   -117.79999   -2388.2094    1465.6178    72.785213    63.033845    36.313561    6384.6081    -308682.2 
     860    1590.5004    166576.38     72.78117    72.781171    36.311544          120    24788.062    24397.946   -33698.337     1721.854     -2013.99    1275.1585     72.78117    63.030343    36.311544    5162.5574   -308693.12 
     870    1575.6005    166549.71    72.777286    72.777287    36.309606          120    24588.634    24491.294   -34059.498    3010.8971   -799.49258    504.03514    72.777286    63.026979    36.309606    5006.8102   -308667.28 
     880    1585.9678    166524.07    72.773551    72.773551    36.307742          120    24855.367    24209.108   -36045.551    2784.7445   -1376.5304    800.15364    72.773551    63.023744    36.307742    4339.6414   -308688.93 
     890    1593.3195    166499.38    72.769954    72.769954    36.305948          120     25697.39    23598.753   -34371.566    2222.8998   -2643.4367      1064.81    72.769954    63.020629    36.305948    4974.8591    -308705.4 
     900    1590.8519    166475.69    72.766502    72.766503    36.304226          120    26603.622    25566.843   -32195.916    1661.2563   -513.65874    495.42255    72.766502     63.01764    36.304226     6658.183   -308701.75 
     910    1583.4459    166453.13    72.763215    72.763216    36.302586          120    27224.045    25671.896   -29803.896    1394.5236   -586.74171   -83.022336    72.763215    63.014794    36.302586    7697.3481   -308688.36 
     920    1581.0048    166431.79    72.760105    72.760106    36.301034          120    26016.101    27653.049   -27943.614    1461.9198   -3101.2266   -259.13686    72.760105      63.0121    36.301034    8575.1789   -308683.81 
     930    1585.8707    166411.69    72.757177    72.757178    36.299573          120    22440.456    28458.936   -28296.806     1654.786   -2938.3324    1526.0037    72.757177    63.009564    36.299573    7534.1954   -308692.96 
     940     1596.066    166392.72    72.754412    72.754413    36.298194          120     20778.67    27874.232   -31875.466    1099.1147   -2792.3538    141.23868    72.754412     63.00717    36.298194    5592.4788   -308712.71 
     950    1596.3687    166374.67    72.751781    72.751782    36.296881          120    20866.771    27181.502   -33882.437    1516.7615   -2535.4841     102.2868    72.751781    63.004891    36.296881    4721.9451   -308713.03 
     960    1607.6831    166357.44     72.74927     72.74927    36.295628          120    21838.083    24926.423   -33391.697    2054.4575    -2765.515    6.7210243     72.74927    63.002716    36.295628     4457.603   -308734.44 
     970    1587.7539    166340.99    72.746871    72.746872    36.294432          120    23052.929    23924.517   -33651.719    1303.5203   -2829.8549    94.237987    72.746871    63.000639    36.294432    4441.9093   -308694.72 
     980    1587.8031    166325.28    72.744581    72.744582    36.293289          120     22689.21    24543.641   -33241.406    1490.0817   -2843.9927   -59.977982    72.744581    62.998656    36.293289     4663.815   -308693.12 
     990    1582.8747    166310.34    72.742403    72.742403    36.292202          120    24956.193    25949.775   -32395.221    1474.0441   -3663.8003   -342.68709    72.742403    62.996769    36.292202    6170.2491   -308682.53 
    1000     1594.346    166296.28    72.740353    72.740353    36.291179          120    24454.937     26626.88   -30478.058    1569.5436   -2979.3419   -1570.9183    72.740353    62.994994    36.291179    6867.9195   -308702.51 
Loop time of 429.773 on 1 procs for 1000 steps with 14848 atoms

Performance: 0.201 ns/day, 119.381 hours/ns, 2.327 timesteps/s
99.9% CPU use with 1 MPI tasks x no OpenMP threads

MPI task timing breakdown:
Section |  min time  |  avg time  |  max time  |%varavg| %total
---------------------------------------------------------------
Pair    | 304.36     | 304.36     | 304.36     |   0.0 | 70.82
Bond    | 0.00055575 | 0.00055575 | 0.00055575 |   0.0 |  0.00
Kspace  | 14.598     | 14.598     | 14.598     |   0.0 |  3.40
Neigh   | 101.53     | 101.53     | 101.53     |   0.0 | 23.62
Comm    | 0.67756    | 0.67756    | 0.67756    |   0.0 |  0.16
Output  | 0.013835   | 0.013835   | 0.013835   |   0.0 |  0.00
Modify  | 8.4049     | 8.4049     | 8.4049     |   0.0 |  1.96
Other   |            | 0.1886     |            |       |  0.04

Nlocal:    14848 ave 14848 max 14848 min
Histogram: 1 0 0 0 0 0 0 0 0 0
Nghost:    46324 ave 46324 max 46324 min
Histogram: 1 0 0 0 0 0 0 0 0 0
Neighs:    9.8928e+06 ave 9.8928e+06 max 9.8928e+06 min
Histogram: 1 0 0 0 0 0 0 0 0 0

Total # of neighbors = 9892802
Ave neighs/atom = 666.272
Ave special neighs/atom = 0
Neighbor list builds = 302
Dangerous builds = 0
PPPM initialization ...
  using 12-bit tables for long-range coulomb (../kspace.cpp:321)
  G vector (1/distance) = 0.202301
  grid = 36 50 24
  stencil order = 5
  estimated absolute RMS force accuracy = 0.00101667
  estimated relative force accuracy = 7.06036e-05
  using double precision FFTs
  3d grid and FFT values/proc = 65395 43200
Setting up Verlet run ...
  Unit style    : metal
  Current step  : 0
  Time step     : 0.001
Per MPI rank memory allocation (min/avg/max) = 149.2 | 149.2 | 149.2 Mbytes
Step Temp Volume Cella Cellb Cellc CellGamma Pxx Pyy Pzz Pxy Pxz Pyz Lx Ly Lz Press PotEng 
       0     1594.346    166296.28    72.740353    72.740353    36.291179          120    24460.855    26632.875   -30477.614    1569.8051   -2979.2327   -1570.8575    72.740353    62.994994    36.291179    6872.0388   -308702.44 
  100000    1600.4114     169216.9    73.163724    73.163725    36.502405          120    14774.775    16728.094   -39356.007   -698.76795   -1018.8009    1671.6404    73.163724    63.361644    36.502405   -2617.7125   -308797.23 
Loop time of 42042.3 on 1 procs for 100000 steps with 14848 atoms

Performance: 0.206 ns/day, 116.784 hours/ns, 2.379 timesteps/s
100.0% CPU use with 1 MPI tasks x no OpenMP threads

MPI task timing breakdown:
Section |  min time  |  avg time  |  max time  |%varavg| %total
---------------------------------------------------------------
Pair    | 29557      | 29557      | 29557      |   0.0 | 70.30
Bond    | 0.055767   | 0.055767   | 0.055767   |   0.0 |  0.00
Kspace  | 1472.9     | 1472.9     | 1472.9     |   0.0 |  3.50
Neigh   | 10086      | 10086      | 10086      |   0.0 | 23.99
Comm    | 67.471     | 67.471     | 67.471     |   0.0 |  0.16
Output  | 0.00012922 | 0.00012922 | 0.00012922 |   0.0 |  0.00
Modify  | 840.71     | 840.71     | 840.71     |   0.0 |  2.00
Other   |            | 18.73      |            |       |  0.04

Nlocal:    14848 ave 14848 max 14848 min
Histogram: 1 0 0 0 0 0 0 0 0 0
Nghost:    45971 ave 45971 max 45971 min
Histogram: 1 0 0 0 0 0 0 0 0 0
Neighs:    9.72126e+06 ave 9.72126e+06 max 9.72126e+06 min
Histogram: 1 0 0 0 0 0 0 0 0 0

Total # of neighbors = 9721265
Ave neighs/atom = 654.719
Ave special neighs/atom = 0
Neighbor list builds = 29907
Dangerous builds = 0
 
All done!
Total wall time: 11:47:53
