LAMMPS (16 Mar 2018)
Reading data file ...
  triclinic box = (0 0 0) to (9.208 7.97436 18.376) with tilt (-4.604 0 0)
  1 by 1 by 1 MPI processor grid
  reading atoms ...
  116 atoms
Finding 1-2 1-3 1-4 neighbors ...
  special bond factors lj:   0          0          0         
  special bond factors coul: 0          0          0         
  0 = max # of 1-2 neighbors
  0 = max # of 1-3 neighbors
  0 = max # of 1-4 neighbors
  1 = max # of special neighbors
Replicating atoms ...
  triclinic box = (0 0 0) to (73.664 63.7949 36.752) with tilt (-36.832 0 0)
  1 by 1 by 1 MPI processor grid
  14848 atoms
Finding 1-2 1-3 1-4 neighbors ...
  special bond factors lj:   0          0          0         
  special bond factors coul: 0          0          0         
  0 = max # of 1-2 neighbors
  0 = max # of 1-3 neighbors
  0 = max # of 1-4 neighbors
  1 = max # of special neighbors
  Time spent = 0.0047822 secs
PPPM initialization ...
WARNING: System is not charge neutral, net charge = -0.2048 (../kspace.cpp:302)
  using 12-bit tables for long-range coulomb (../kspace.cpp:321)
  G vector (1/distance) = 0.201681
  grid = 36 50 24
  stencil order = 5
  estimated absolute RMS force accuracy = 0.00105653
  estimated relative force accuracy = 7.33721e-05
  using double precision FFTs
  3d grid and FFT values/proc = 65395 43200
Neighbor list info ...
  update every 1 steps, delay 0 steps, check yes
  max neighbors/atom: 2000, page size: 100000
  master list distance cutoff = 15.3
  ghost atom cutoff = 15.3
  binsize = 7.65, bins = 15 9 5
  3 neighbor lists, perpetual/occasional/extra = 3 0 0
  (1) pair morse, perpetual
      attributes: half, newton on
      pair build: half/bin/newton/tri
      stencil: half/bin/3d/newton/tri
      bin: standard
  (2) pair buck, perpetual, copy from (1)
      attributes: half, newton on
      pair build: copy
      stencil: none
      bin: none
  (3) pair lj/cut/coul/long, perpetual, copy from (1)
      attributes: half, newton on
      pair build: copy
      stencil: none
      bin: none
Setting up Verlet run ...
  Unit style    : metal
  Current step  : 0
  Time step     : 0.001
Per MPI rank memory allocation (min/avg/max) = 145.7 | 145.7 | 145.7 Mbytes
Step Temp Volume Cella Cellb Cellc CellGamma Pxx Pyy Pzz Pxy Pxz Pyz Lx Ly Lz Press PotEng 
       0         2000    172711.88       73.664    73.664001       36.752          120   -180373.14   -180739.41   -252217.11    158.77724   -50.847691     68.02383       73.664    63.794896       36.752   -204443.22   -308813.33 
      10    1145.9834    172703.25    73.662773    73.662774    36.751388          120   -159107.36   -159186.67   -202916.13    98.786399     3.257449    -486.9143    73.662773    63.793834    36.751388   -173736.72   -307172.22 
      20    1472.4449    172679.39    73.659381    73.659381    36.749695          120   -134288.04   -135712.66   -137741.68    428.68759    342.61876   -732.36993    73.659381    63.790896    36.749695   -135914.13   -307789.27 
      30    1597.1094    172643.84    73.654326    73.654326    36.747173          120   -84871.518   -85636.309   -61839.338   -333.60918   -879.06335   -664.46775    73.654326    63.786518    36.747173   -77449.055   -308006.25 
      40    1390.6271     172601.5    73.648304    73.648305    36.744169          120   -46524.268   -47793.373   -1448.8687   -1942.9498   -425.94354   -534.02766    73.648304    63.781303    36.744169    -31922.17   -307582.75 
      50    1542.1511    172556.12    73.641849    73.641849    36.740949          120   -36353.476   -36925.438   -8508.0075   -639.63348    375.68153   -1019.6226    73.641849    63.775713    36.740949   -27262.307   -307844.15 
      60    1702.8078    172508.25    73.635038    73.635039     36.73755          120   -37577.419   -36735.797   -55667.225    -1406.819   -1250.0748   -777.99459    73.635038    63.769814     36.73755   -43326.814   -308121.73 
      70    1786.8703    172456.66    73.627698    73.627698    36.733888          120   -36031.865   -39042.272   -110511.96   -1950.3584   -1914.5967   -308.40262    73.627698    63.763457    36.733888   -61862.033   -308256.99 
      80    1681.0136    172399.85    73.619612    73.619612    36.729854          120   -39369.702    -42917.71   -143832.97   -1461.1496   -1203.1932   -677.15941    73.619612    63.756455    36.729854    -75373.46   -308027.69 
      90    1526.6064    172336.74    73.610627    73.610627    36.725371          120   -38436.028   -39082.822   -148160.87   -542.50357     -2491.67   -2114.6726    73.610627    63.748673    36.725371   -75226.575   -307702.87 
     100    1591.1624    172267.44    73.600759    73.600759    36.720448          120   -23441.603   -22895.696   -128311.78   -1423.4913   -1964.7302   -2760.5375    73.600759    63.740127    36.720448   -58216.361   -307800.63 
     110    1695.6788     172193.4    73.590213    73.590213    36.715187          120   -7742.8236   -8206.9967   -97628.504   -1615.5479   -963.88962   -3201.0042    73.590213    63.730994    36.715187   -37859.441   -307972.95 
     120    1725.5753    172116.42    73.579246    73.579246    36.709715          120    12.242104   -1742.1748   -60750.557   -982.29905    385.33788   -2256.0802    73.579246    63.721497    36.709715    -20826.83   -308001.58 
     130    1695.1979    172038.07    73.568079     73.56808    36.704144          120    1523.9453    -240.4158   -32861.613    165.14681    133.18543   -2192.1288    73.568079    63.711826    36.704144   -10526.028   -307914.27 
     140     1683.224     171959.3    73.556849    73.556849    36.698541          120   -1927.2983    -4271.409   -23216.895   -125.04862   -1262.5026   -2636.7671    73.556849      63.7021    36.698541   -9805.2009    -307862.5 
     150    1706.4522    171880.25    73.545576    73.545576    36.692917          120   -8420.0328    -10247.35   -36175.486   -1130.5367   -1660.1187   -1544.5828    73.545576    63.692338    36.692917   -18280.956    -307878.5 
     160    1763.5547    171800.33    73.534175    73.534175    36.687228          120   -15488.957    -14366.71   -61288.397   -613.23659   -1026.1264   -2788.1196    73.534175    63.682464    36.687228   -30381.355   -307960.37 
     170    1771.5358    171718.62    73.522516    73.522517    36.681412          120   -15186.638   -17394.151   -87094.257   -699.78101   -3832.6571   -3233.5013    73.522516    63.672367    36.681412   -39891.682   -307948.06 
     180     1754.004    171634.46    73.510503    73.510504    36.675418          120   -13683.248   -16227.692   -99954.061    723.81966   -4078.7714   -3373.0825    73.510503    63.661964    36.675418   -43288.334   -307888.36 
     190    1731.9869    171547.67     73.49811    73.498111    36.669235          120   -13139.321    -11085.17   -103118.25    1279.3438   -4695.6418   -3101.8165     73.49811    63.651231    36.669235    -42447.58   -307819.47 
     200     1755.749    171458.47    73.485368    73.485369    36.662878          120   -9126.2844   -11301.875   -93801.613   -271.03774   -6159.4066   -4152.6813    73.485368    63.640196    36.662878   -38076.591   -307837.04 
     210    1778.2771    171367.38    73.472353    73.472354    36.656385          120   -5294.8954   -8531.8477   -79516.666    1379.1043   -3571.0817   -3971.5322    73.472353    63.628925    36.656385    -31114.47      -307852 
     220    1786.0198    171275.16    73.459171    73.459172    36.649808          120   -3253.7403   -3425.3855   -65136.154   -89.720426   -2781.5446   -2897.2682    73.459171    63.617509    36.649808   -23938.427   -307838.76 
     230    1795.1415    171182.52    73.445924    73.445924    36.643199          120   -2290.3544   -2616.2548   -56933.531   -579.53145   -2548.1023   -4253.1955    73.445924    63.606036    36.643199    -20613.38   -307826.75 
     240    1793.8404    171089.89    73.432674    73.432675    36.636588          120   -2448.3868    -5391.181    -52416.55   -213.34914   -1645.9853   -4890.6143    73.432674    63.594562    36.636588   -20085.373   -307796.09 
     250    1812.6187    170997.45    73.419447    73.419447    36.629989          120   -3788.1581   -4391.4142   -57118.092     176.0511   -1001.7552   -5024.0403    73.419447    63.583107    36.629989   -21765.888    -307804.2 
     260    1857.4322    170905.18    73.406238    73.406239    36.623399          120   -5474.3012   -6764.1018   -65161.826    876.26786    -837.6356   -3655.1017    73.406238    63.571668    36.623399   -25800.076   -307863.81 
     270    1870.9577    170812.88    73.393021    73.393022    36.616805          120   -8107.8906   -8976.9526   -74253.146    364.28541   -1700.4564   -4191.9291    73.393021    63.560222    36.616805   -30445.996   -307863.66 
     280    1858.2023    170720.31    73.379761    73.379761    36.610189          120   -10599.309   -10080.768   -80041.578    25.723612   -3854.6141   -1854.6186    73.379761    63.548738    36.610189   -33573.885   -307813.56 
     290    1852.9394    170627.36     73.36644    73.366441    36.603543          120   -7952.4516   -6986.0719   -81316.088   -847.33533   -4198.5764    250.19812     73.36644    63.537202    36.603543    -32084.87   -307777.84 
     300     1878.433    170534.26    73.353094    73.353095    36.596885          120   -4925.5562   -4644.6549   -74447.568   -1283.7573   -4187.4818   -2328.6927    73.353094    63.525644    36.596885   -28005.926   -307800.73 
     310    1889.5831    170441.49    73.339791    73.339791    36.590247          120   -1453.4843   -924.44893   -64467.036   -168.17793   -4989.6697   -1808.8796    73.339791    63.514123    36.590247   -22281.657   -307795.79 
     320    1891.0492    170349.59    73.326608    73.326608     36.58367          120    29.526227     613.0824   -58399.686    2122.6763   -2562.6644   -3048.3756    73.326608    63.502706     36.58367   -19252.359   -307773.82 
     330    1887.7682    170258.94    73.313599    73.313599     36.57718          120    1864.1871   -633.31703   -52851.553    1251.9894   -1827.6325    -3236.495    73.313599     63.49144     36.57718   -17206.894   -307741.71 
     340    1908.8331    170169.74    73.300793    73.300794    36.570791          120    2165.3962   -1333.8573   -53819.908    746.40125    -3092.634   -3226.1915    73.300793     63.48035    36.570791    -17662.79   -307757.08 
     350     1914.303    170082.04    73.288198    73.288198    36.564507          120    1943.1959    120.67354   -54438.667   -13.460976   -1109.9494   -4653.5507    73.288198    63.469442    36.564507   -17458.266   -307743.38 
     360    1925.1515    169995.86    73.275818    73.275819    36.558331          120    4468.6281    440.95562   -59978.101   -853.18438   -978.96514    -3480.885    73.275818    63.458721    36.558331   -18356.172   -307739.59 
     370    1934.6125    169911.18    73.263648    73.263649    36.552259          120    5586.9235    539.10639   -62758.466    1053.5038   -1088.6923    -2091.568    73.263648    63.448181    36.552259   -18877.479   -307734.19 
     380     1939.656    169827.96    73.251686    73.251686    36.546291          120    4408.6733    3283.4531   -64873.595    215.32054   -1368.5019   -1152.4983    73.251686    63.437821    36.546291   -19060.489   -307720.37 
     390     1937.504    169746.18    73.239926    73.239926    36.540423          120    3970.0441    3759.7104   -63488.354   -324.22769   -2277.5954   -1324.9178    73.239926    63.427637    36.540423     -18586.2   -307693.24 
     400     1937.128    169665.89    73.228377    73.228377    36.534661          120    4337.5374     5894.081   -58367.556    34.439029    -773.9066   -185.20476    73.228377    63.417635    36.534661   -16045.313   -307670.69 
     410    1951.1712    169587.27    73.217064    73.217065    36.529018          120    6504.5887     9278.445   -56789.553   -1208.1277    245.56935   -1655.6818    73.217064    63.407838    36.529018    -13668.84   -307675.25 
     420    1961.6714     169510.5    73.206014    73.206015    36.523505          120    9416.9022    11071.924   -49624.111   -267.65416   -855.94021   -1565.4848    73.206014    63.398269    36.523505   -9711.7615   -307673.02 
     430    1974.7029    169435.83    73.195264    73.195264    36.518141          120    11429.505    12956.777   -45690.053   -307.59969   -2080.3342   -274.12003    73.195264    63.388959    36.518141   -7101.2569   -307676.35 
     440    2004.5917    169363.39    73.184831    73.184832    36.512936          120    10828.989    11376.257   -45165.642    519.45665   -3639.0841    6.5101523    73.184831    63.379924    36.512936   -7653.4656   -307714.76 
     450      1976.44    169293.09    73.174703    73.174704    36.507883          120    12122.385    12120.272   -48383.585   -1730.4119   -1031.1305   -733.09408    73.174703    63.371153    36.507883   -8046.9761   -307641.23 
     460    1996.2323    169224.79    73.164862    73.164862    36.502973          120    12715.634    9895.0821   -51889.711   -246.40042    702.02452   -1665.3662    73.164862     63.36263    36.502973   -9759.6651   -307662.15 
     470    1996.7599    169158.28    73.155275    73.155276     36.49819          120    11779.795    10019.184   -55394.322    687.97452    1811.7869   -187.24553    73.155275    63.354327     36.49819   -11198.448    -307645.3 
     480    2006.6518    169093.38    73.145918    73.145919    36.493522          120    13383.937    11027.697   -54738.835   -229.15956   -164.99303    959.87976    73.145918    63.346224    36.493522   -10109.067   -307649.11 
     490    2002.4325    169030.11    73.136794    73.136794    36.488969          120    16856.902    11396.134   -50940.228   -921.97235   -1316.3507   -333.77281    73.136794    63.338322    36.488969   -7562.3972   -307625.33 
     500    1998.0511    168968.54    73.127913    73.127913    36.484538          120    15201.227    13285.409    -50207.14    611.38777   -1686.3927   -2176.6617    73.127913    63.330631    36.484538   -7240.1681   -307602.09 
     510    2006.4093    168908.62    73.119268    73.119269    36.480226          120    15288.343     12957.92   -49026.771    1279.8008    213.63258   -1040.1838    73.119268    63.323144    36.480226   -6926.8359   -307603.66 
     520    2012.7324    168850.32    73.110853    73.110854    36.476027          120    16737.114    13229.862   -44482.414    1984.8496   -297.84268   -126.99096    73.110853    63.315857    36.476027   -4838.4793   -307602.73 
     530    2017.0458    168793.64    73.102673    73.102673    36.471946          120    16322.386    13870.827   -47598.134   -1173.3731   -79.925555   -945.26683    73.102673    63.308772    36.471946   -5801.6404   -307598.86 
     540    2019.4935    168738.47    73.094708    73.094708    36.467972          120    16077.261    12082.577   -46525.237   -1121.1393     381.2404   -361.02013    73.094708    63.301874    36.467972   -6121.7999   -307591.22 
     550    2026.4361    168684.69     73.08694    73.086941    36.464097          120     15387.59    15382.211   -46865.965   -253.45583    1445.4956   -170.46747     73.08694    63.295148    36.464097   -5365.3877   -307594.55 
     560    2038.8785    168632.26    73.079367    73.079368    36.460319          120    13736.767     18248.28   -47203.267   -115.02486    2311.8086   -187.26024    73.079367    63.288589    36.460319   -5072.7397   -307610.32 
     570     2039.255    168581.13    73.071981    73.071981    36.456633          120    13507.138    19166.614   -49006.878   -1364.1973    2293.7288   -1103.9975    73.071981    63.282192    36.456633   -5444.3753   -307604.25 
     580    2032.5673    168531.22    73.064769    73.064769    36.453035          120    14820.399     19015.39   -47922.825   -626.48609    834.71835   -1290.1769    73.064769    63.275946    36.453035   -4695.6785   -307585.18 
     590    2023.1215    168482.49    73.057726    73.057727    36.449522          120    15749.415    17442.198   -46124.159   -781.12131    651.98919   -937.16173    73.057726    63.269848    36.449522    -4310.849   -307562.75 
     600    2044.0866     168434.9    73.050847    73.050848    36.446089          120    17285.074    17199.531   -46526.447   -1224.1967    1016.8219    116.84001    73.050847     63.26389    36.446089   -4013.9477   -307599.15 
     610     2034.048    168388.41    73.044125    73.044126    36.442736          120    19215.288    18837.241   -44402.232   -1751.9991    2571.5099    558.33895    73.044125    63.258069    36.442736   -2116.5678   -307577.65 
     620    2036.1796     168343.1    73.037572    73.037573    36.439467          120    21953.568    18807.445   -43279.374   -2979.9446    1513.0102    221.98302    73.037572    63.252394    36.439467   -839.45383   -307580.69 
     630    2040.3269    168298.98    73.031192    73.031193    36.436283          120     20773.21    19582.621   -42110.892   -834.76793    2447.5155    1911.5747    73.031192    63.246869    36.436283   -585.02076   -307588.97 
     640    2045.6744    168256.04    73.024981    73.024981    36.433184          120    20594.907    20850.487   -42118.121   -621.38971    436.71692    3277.4079    73.024981    63.241489    36.433184   -224.24204   -307601.92 
     650    2063.6271    168214.25    73.018934    73.018934    36.430167          120     20172.63    21597.376   -41280.943   -1085.7046    648.45864    1368.8781    73.018934    63.236252    36.430167    163.02114   -307641.45 
     660    2050.7704    168173.57    73.013048    73.013048    36.427231          120    22181.621    21982.127   -40185.729   -901.30739   -929.47701    1586.5239    73.013048    63.231155    36.427231     1326.006   -307623.54 
     670    2049.3838    168134.03    73.007325    73.007326    36.424376          120    23194.893    18826.954   -39025.636   -1407.2302    684.86009   -116.75785    73.007325    63.226199    36.424376    998.73682    -307629.9 
     680    2047.3694    168095.57    73.001758    73.001758    36.421598          120    23306.197    20187.753    -41541.82   -179.36566    903.56814   -925.55213    73.001758    63.221377    36.421598    650.70992   -307637.02 
     690    2045.9905     168058.1    72.996333    72.996334    36.418892          120    21590.473    19665.281   -41836.838    173.72024    1043.6852   -1485.9988    72.996333     63.21668    36.418892   -193.69471   -307646.37 
     700     2016.866    168021.52    72.991036    72.991037    36.416249          120    19021.503    20808.157   -40454.095    1166.6758    1933.4147   -119.00296    72.991036    63.212092    36.416249   -208.14489   -307603.56 
     710    2022.6433    167985.74    72.985856    72.985856    36.413664          120    17953.762    20241.795   -41727.701    125.64644    3840.4076    17.310527    72.985856    63.207606    36.413664   -1177.3816   -307628.58 
     720    2031.6902     167950.7    72.980779     72.98078    36.411132          120    20496.266    21685.701   -41672.077   -510.88177    1467.1631   -463.20239    72.980779     63.20321    36.411132    169.96376    -307660.3 
     730    2039.5042    167916.44    72.975817    72.975817    36.408656          120     23517.75    23006.792   -39927.925   -1003.5267   -480.89364    711.10168    72.975817    63.198912    36.408656    2198.8725   -307690.39 
     740    2028.0486     167883.1    72.970987    72.970987    36.406246          120    24181.914    24596.156   -36856.795   -1276.1049   -566.26598    892.47744    72.970987    63.194729    36.406246    3973.7584   -307683.52 
     750    2006.8152    167850.77    72.966302    72.966303    36.403909          120    24446.414    22706.738   -36374.952   -713.31384    570.25411    1669.7005    72.966302    63.190672    36.403909    3592.7334   -307659.47 
     760    2002.4424     167819.4    72.961756    72.961757    36.401641          120    22990.844    21375.734   -35815.577   -550.55655    2572.7112    2133.2184    72.961756    63.186735    36.401641    2850.3337   -307666.01 
     770    2012.1483    167788.87    72.957333    72.957333    36.399434          120    23573.588    21645.833    -38884.27   -509.71366    1218.2537    2304.7088    72.957333    63.182904    36.399434     2111.717   -307700.43 
     780    2011.1378    167759.15    72.953024    72.953024    36.397284          120    23893.603     24657.32    -37396.19   -1215.1342    2619.9824    203.04299    72.953024    63.179172    36.397284    3718.2446   -307713.29 
     790    2002.4707     167730.3    72.948842    72.948842    36.395198          120    25135.775    25740.965   -36972.495   -1714.7321     1840.923   -582.71243    72.948842    63.175551    36.395198    4634.7482   -307711.12 
     800    1997.4226    167702.35    72.944789     72.94479    36.393176          120     22629.46    23993.617   -36969.007   -2434.3806    1577.8747   -366.17652    72.944789    63.172041    36.393176    3218.0234   -307716.32 
     810    1991.3994    167675.19    72.940852    72.940853    36.391211          120    20274.317    24951.694   -33447.632   -2625.5368    605.33194   -1495.5884    72.940852    63.168632    36.391211    3926.1263   -307718.36 
     820    2017.2674    167648.82    72.937028    72.937029    36.389304          120    23343.406    22906.493    -36880.84   -333.34121   -334.67079    866.63962    72.937028     63.16532    36.389304    3123.0196   -307780.74 
     830     1985.454    167623.19     72.93331    72.933311    36.387449          120    24895.528    25835.804   -38698.978    84.056765   -1309.2237   -423.22233     72.93331      63.1621    36.387449    4010.7849    -307732.4 
     840    2003.6823    167598.31    72.929703    72.929703    36.385649          120    25485.503    24492.042   -39251.184    549.26431   -1067.2209    -871.3786    72.929703    63.158976    36.385649    3575.4537   -307778.96 
     850    1981.1329    167574.16    72.926198    72.926199      36.3839          120    24950.146    22747.142   -38068.143   -22.795097   -1530.3543   -1655.1912    72.926198    63.155941      36.3839    3209.7152   -307748.15 
     860    1997.5317    167550.66    72.922789     72.92279      36.3822          120    25320.998    21916.856   -39547.066   -632.79768   -1341.6613   -79.921987    72.922789    63.152989      36.3822    2563.5957   -307790.49 
     870    1998.5736     167527.8    72.919473    72.919473    36.380545          120     27444.68    24668.949   -36184.249   -1086.7556      26.9754    1379.3607    72.919473    63.150116    36.380545    5309.7932   -307803.06 
     880    1975.6797    167505.72     72.91627    72.916271    36.378947          120    28458.091    25288.816   -34140.732   -759.43428    1297.4235    2647.9489     72.91627    63.147343    36.378947     6535.392   -307769.13 
     890      1987.39    167484.51    72.913191    72.913192    36.377411          120    26079.855    23684.565   -36371.505    979.79718    2118.0352   -280.88775    72.913191    63.144677    36.377411    4464.3053   -307801.82 
     900    1980.4676    167464.02    72.910219    72.910219    36.375928          120    24617.822      25494.4   -35656.306    474.93549    3377.2494   -640.23875    72.910219    63.142102    36.375928    4818.6385   -307797.21 
     910    1955.2674    167444.24    72.907347    72.907348    36.374495          120    25255.365    23412.331   -34294.822    1921.4715    1405.4355    2689.7584    72.907347    63.139616    36.374495    4790.9582      -307756 
     920    1997.0677    167425.15    72.904577    72.904577    36.373113          120    27087.232    24690.169   -33244.883     8.197439    245.70709    483.36372    72.904577    63.137216    36.373113     6177.506   -307843.82 
     930    1985.3233    167406.82    72.901916    72.901916    36.371785          120    28068.047    22669.651   -35978.299    457.38334     2297.907    511.15237    72.901916    63.134912    36.371785    4919.7998   -307827.53 
     940    1983.7699    167389.16    72.899352    72.899353    36.370507          120    26147.791    22852.766   -37997.036    451.07892    2990.3734   -593.92034    72.899352    63.132692    36.370507    3667.8405   -307829.23 
     950    1965.2612    167372.07    72.896872    72.896872    36.369269          120    23680.686    27791.749   -37668.678   -47.867878     3333.121    813.08315    72.896872    63.130544    36.369269    4601.2523    -307797.8 
     960    1976.0195    167355.61    72.894482    72.894482    36.368077          120    24687.128    27462.352   -34116.907    818.00196    3206.6517    885.18611    72.894482    63.128474    36.368077    6010.8575   -307821.63 
     970    1989.6728    167339.86    72.892195    72.892196    36.366936          120    28709.988    26823.743    -31725.57    1394.0422    2053.8357   -78.993262    72.892195    63.126494    36.366936    7936.0539   -307850.63 
     980    1982.3377    167324.98    72.890034    72.890034    36.365857          120    30865.447    28969.116   -33643.888    1000.1928    1880.4201    2890.3878    72.890034    63.124622    36.365857    8730.2249   -307837.99 
     990    1983.6525    167310.99    72.888003    72.888003    36.364844          120    28389.319    25580.675   -35575.089    237.21758    1623.7312    5371.0176    72.888003    63.122863    36.364844    6131.6353   -307841.86 
    1000    1984.5097     167297.7    72.886073    72.886074    36.363882          120      24307.6    25229.402   -35705.881   -163.00885    1868.3882    4250.0263    72.886073    63.121192    36.363882    4610.3736   -307843.94 
Loop time of 441.622 on 1 procs for 1000 steps with 14848 atoms

Performance: 0.196 ns/day, 122.673 hours/ns, 2.264 timesteps/s
100.0% CPU use with 1 MPI tasks x no OpenMP threads

MPI task timing breakdown:
Section |  min time  |  avg time  |  max time  |%varavg| %total
---------------------------------------------------------------
Pair    | 307.38     | 307.38     | 307.38     |   0.0 | 69.60
Bond    | 0.00053978 | 0.00053978 | 0.00053978 |   0.0 |  0.00
Kspace  | 14.75      | 14.75      | 14.75      |   0.0 |  3.34
Neigh   | 109.96     | 109.96     | 109.96     |   0.0 | 24.90
Comm    | 0.7135     | 0.7135     | 0.7135     |   0.0 |  0.16
Output  | 0.013741   | 0.013741   | 0.013741   |   0.0 |  0.00
Modify  | 8.6159     | 8.6159     | 8.6159     |   0.0 |  1.95
Other   |            | 0.1941     |            |       |  0.04

Nlocal:    14848 ave 14848 max 14848 min
Histogram: 1 0 0 0 0 0 0 0 0 0
Nghost:    46320 ave 46320 max 46320 min
Histogram: 1 0 0 0 0 0 0 0 0 0
Neighs:    9.83459e+06 ave 9.83459e+06 max 9.83459e+06 min
Histogram: 1 0 0 0 0 0 0 0 0 0

Total # of neighbors = 9834590
Ave neighs/atom = 662.351
Ave special neighs/atom = 0
Neighbor list builds = 327
Dangerous builds = 0
PPPM initialization ...
  using 12-bit tables for long-range coulomb (../kspace.cpp:321)
  G vector (1/distance) = 0.202203
  grid = 36 50 24
  stencil order = 5
  estimated absolute RMS force accuracy = 0.00102288
  estimated relative force accuracy = 7.1035e-05
  using double precision FFTs
  3d grid and FFT values/proc = 65395 43200
Setting up Verlet run ...
  Unit style    : metal
  Current step  : 0
  Time step     : 0.001
Per MPI rank memory allocation (min/avg/max) = 148 | 148 | 148 Mbytes
Step Temp Volume Cella Cellb Cellc CellGamma Pxx Pyy Pzz Pxy Pxz Pyz Lx Ly Lz Press PotEng 
       0    1984.5097     167297.7    72.886073    72.886074    36.363882          120    24312.866    25234.848   -35705.389   -162.77076    1868.3313    4249.9404    72.886073    63.121192    36.363882    4614.1085   -307843.88 
  100000    2011.9495    170183.29    73.302739     73.30274    36.571762          120    14962.503    21912.277    -41303.51   -6959.9973    33.045854    366.52616    73.302739    63.482035    36.571762   -1476.2435   -307924.71 
Loop time of 50490.9 on 1 procs for 100000 steps with 14848 atoms

Performance: 0.171 ns/day, 140.253 hours/ns, 1.981 timesteps/s
85.5% CPU use with 1 MPI tasks x no OpenMP threads

MPI task timing breakdown:
Section |  min time  |  avg time  |  max time  |%varavg| %total
---------------------------------------------------------------
Pair    | 34379      | 34379      | 34379      |   0.0 | 68.09
Bond    | 0.055898   | 0.055898   | 0.055898   |   0.0 |  0.00
Kspace  | 2525.7     | 2525.7     | 2525.7     |   0.0 |  5.00
Neigh   | 12247      | 12247      | 12247      |   0.0 | 24.26
Comm    | 71.014     | 71.014     | 71.014     |   0.0 |  0.14
Output  | 0.00012898 | 0.00012898 | 0.00012898 |   0.0 |  0.00
Modify  | 1248.6     | 1248.6     | 1248.6     |   0.0 |  2.47
Other   |            | 19.25      |            |       |  0.04

Nlocal:    14848 ave 14848 max 14848 min
Histogram: 1 0 0 0 0 0 0 0 0 0
Nghost:    45704 ave 45704 max 45704 min
Histogram: 1 0 0 0 0 0 0 0 0 0
Neighs:    9.66577e+06 ave 9.66577e+06 max 9.66577e+06 min
Histogram: 1 0 0 0 0 0 0 0 0 0

Total # of neighbors = 9665774
Ave neighs/atom = 650.982
Ave special neighs/atom = 0
Neighbor list builds = 33295
Dangerous builds = 0
 
All done!
Total wall time: 14:08:54
