LAMMPS (16 Mar 2018)
Reading data file ...
  triclinic box = (0 0 0) to (9.208 7.97436 18.376) with tilt (-4.604 0 0)
  1 by 1 by 1 MPI processor grid
  reading atoms ...
  116 atoms
Finding 1-2 1-3 1-4 neighbors ...
  special bond factors lj:   0          0          0         
  special bond factors coul: 0          0          0         
  0 = max # of 1-2 neighbors
  0 = max # of 1-3 neighbors
  0 = max # of 1-4 neighbors
  1 = max # of special neighbors
Replicating atoms ...
  triclinic box = (0 0 0) to (73.664 63.7949 36.752) with tilt (-36.832 0 0)
  1 by 1 by 1 MPI processor grid
  14848 atoms
Finding 1-2 1-3 1-4 neighbors ...
  special bond factors lj:   0          0          0         
  special bond factors coul: 0          0          0         
  0 = max # of 1-2 neighbors
  0 = max # of 1-3 neighbors
  0 = max # of 1-4 neighbors
  1 = max # of special neighbors
  Time spent = 0.00389504 secs
PPPM initialization ...
WARNING: System is not charge neutral, net charge = -0.2048 (../kspace.cpp:302)
  using 12-bit tables for long-range coulomb (../kspace.cpp:321)
  G vector (1/distance) = 0.201681
  grid = 36 50 24
  stencil order = 5
  estimated absolute RMS force accuracy = 0.00105653
  estimated relative force accuracy = 7.33721e-05
  using double precision FFTs
  3d grid and FFT values/proc = 65395 43200
Neighbor list info ...
  update every 1 steps, delay 0 steps, check yes
  max neighbors/atom: 2000, page size: 100000
  master list distance cutoff = 15.3
  ghost atom cutoff = 15.3
  binsize = 7.65, bins = 15 9 5
  3 neighbor lists, perpetual/occasional/extra = 3 0 0
  (1) pair morse, perpetual
      attributes: half, newton on
      pair build: half/bin/newton/tri
      stencil: half/bin/3d/newton/tri
      bin: standard
  (2) pair buck, perpetual, copy from (1)
      attributes: half, newton on
      pair build: copy
      stencil: none
      bin: none
  (3) pair lj/cut/coul/long, perpetual, copy from (1)
      attributes: half, newton on
      pair build: copy
      stencil: none
      bin: none
Setting up Verlet run ...
  Unit style    : metal
  Current step  : 0
  Time step     : 0.001
Per MPI rank memory allocation (min/avg/max) = 145.7 | 145.7 | 145.7 Mbytes
Step Temp Volume Cella Cellb Cellc CellGamma Pxx Pyy Pzz Pxy Pxz Pyz Lx Ly Lz Press PotEng 
       0         1200    172711.88       73.664    73.664001       36.752          120   -189958.96   -190175.64   -261679.76    95.786324   -30.510356    40.813642       73.664    63.794896       36.752   -213938.12   -308813.33 
      10    780.07603    172696.61    73.661829    73.661829    36.750917          120   -179545.91   -179632.98   -224596.21    148.50155   -28.771395   -357.91161    73.661829    63.793016    36.750917    -194591.7   -308014.64 
      20     1095.862     172653.1    73.655642    73.655642     36.74783          120   -162430.87    -162941.6   -159796.25    196.71635   -68.867801   -689.61627    73.655642    63.787658     36.74783    -161722.9   -308622.68 
      30     1187.295    172586.42    73.646159     73.64616    36.743099          120   -116149.48   -116563.38   -80749.112   -190.47848   -848.60003   -615.86458    73.646159    63.779445    36.743099   -104487.32   -308792.34 
      40    966.32655    172504.71    73.634534    73.634535    36.737299          120   -70469.613   -71443.981   -8656.6915   -1648.7538   -931.90941   -483.99452    73.634534    63.769378    36.737299   -50190.095   -308353.63 
      50    1099.7177    172415.44    73.621831    73.621832    36.730962          120   -51080.085   -52212.496   -4663.5049   -350.06711   -254.33612   -766.44823    73.621831    63.758377    36.730962   -35985.362   -308593.38 
      60    1300.6241    172320.96    73.608381    73.608381    36.724251          120   -48599.853   -47945.448   -54072.622   -1481.7947    -1487.815   -892.30029    73.608381    63.746728    36.724251   -50205.974   -308963.99 
      70    1403.8973    172219.71    73.593961    73.593962    36.717057          120   -45989.914   -47629.853   -114862.08   -1975.1333     -2143.46   -625.17532    73.593961    63.734241    36.717057   -69493.951   -309158.71 
      80    1287.1287    172109.26    73.578224    73.578225    36.709205          120   -47440.374   -50066.785    -154345.5   -1977.6419   -1844.0408   -528.46899    73.578224    63.720612    36.709205   -83950.885   -308939.46 
      90    1093.1134    171987.92     73.56093     73.56093    36.700577          120     -46451.6   -46189.124   -161896.39   -1357.3208   -2614.0434    -2143.468     73.56093    63.705634    36.700577   -84845.706      -308573 
     100    1139.6662    171856.11    73.542133    73.542133    36.691199          120   -30818.492   -29425.157   -141184.13   -1303.4719   -2241.0955   -2007.7809    73.542133    63.689356    36.691199   -67142.595   -308669.22 
     110    1271.5757    171716.71    73.522243    73.522244    36.681275          120   -13250.738    -12862.52   -106287.71   -2032.5062   -684.27877   -2340.7172    73.522243    63.672131    36.681275   -44133.656   -308927.25 
     120    1292.8634     171573.5    73.501798    73.501799    36.671075          120    -3785.261   -3698.9497   -64982.277   -1634.8243   -19.417899   -1665.3545    73.501798    63.654425    36.671075   -24155.496   -308973.22 
     130    1234.6297    171429.84    73.481277    73.481278    36.660837          120   -3007.1177   -1785.5623   -32490.824   -496.70167   -838.08362   -1561.8435    73.481277    63.636654    36.660837   -12427.835   -308869.53 
     140    1201.7177    171287.86    73.460987    73.460987    36.650714          120   -6714.9179   -6603.9753    -20542.09   -733.58305   -1122.1856   -2945.7489    73.460987    63.619081    36.650714   -11286.994   -308814.08 
     150    1222.5166    171148.14    73.441007    73.441008    36.640746          120   -13741.528   -13017.466   -36809.214   -1345.7734   -1295.0914   -2140.2078    73.441007    63.601778    36.640746   -21189.403   -308862.32 
     160    1276.5864    171009.73    73.421204    73.421205    36.630866          120    -21174.14   -18879.411   -65007.292   -1801.2818   -1554.3165   -3246.3174    73.421204    63.584629    36.630866   -35020.281   -308978.35 
     170    1291.8533    170871.15    73.401366    73.401366    36.620968          120   -23281.962   -23376.937   -92570.211   -1594.3182   -2505.7077   -3221.8314    73.401366    63.567448    36.620968   -46409.703   -309022.01 
     180    1239.5188    170731.31    73.381336    73.381337    36.610975          120   -21005.557    -21020.03   -108838.74   -410.64653   -2110.7379   -3160.7648    73.381336    63.550102    36.610975   -50288.109   -308938.48 
     190    1218.5408    170590.11    73.361102    73.361103     36.60088          120   -19287.113   -17047.353   -110406.53   -590.50023   -4551.2932   -2811.2207    73.361102    63.532579     36.60088   -48913.667   -308914.18 
     200    1233.0265     170448.3    73.340767    73.340768    36.590735          120   -14609.036   -14691.816   -96600.252   -1386.3123   -3979.1005   -2682.7699    73.340767    63.514968    36.590735   -41967.035   -308955.69 
     210    1264.0486    170307.18    73.320522    73.320523    36.580634          120   -11193.874   -12532.206   -78922.107   -888.12267   -3540.2696    -2939.441    73.320522    63.497435    36.580634   -34216.062   -309029.36 
     220    1261.7039    170168.21    73.300573    73.300574    36.570681          120   -8192.1532   -8459.6607   -64026.235   -1958.8152   -2377.9546   -3627.8565    73.300573    63.480159    36.570681   -26892.683   -309038.04 
     230    1245.7585    170032.57    73.281093    73.281094    36.560962          120   -9542.3767   -8636.9618   -56030.599   -1808.8492   -1929.3249   -5747.1023    73.281093    63.463289    36.560962   -24736.646   -309020.33 
     240    1244.3772    169900.75     73.26215    73.262151    36.551512          120   -9823.1209   -9421.8897   -53037.634   -976.03406   -1122.2833   -5704.6669     73.26215    63.446884    36.551512   -24094.215    -309031.7 
     250    1249.9122    169772.82    73.243757    73.243758    36.542335          120   -11424.289    -11496.58   -59099.055   -141.71946   -1020.8143   -4736.8521    73.243757    63.430955    36.542335   -27339.975   -309055.66 
     260    1273.8827    169648.32    73.225849    73.225849      36.5334          120    -15538.26   -13553.431   -71268.392   -282.01479   -1181.0805   -5369.3725    73.225849    63.415446      36.5334   -33453.361   -309116.61 
     270     1263.607    169526.43    73.208308    73.208308    36.524649          120   -17334.349   -14524.578   -79882.239   -418.86677   -2016.6485   -4561.6724    73.208308    63.400255    36.524649   -37247.056   -309112.78 
     280    1255.0788    169406.58    73.191051    73.191052    36.516039          120   -17546.927   -15374.553    -85966.16    397.65811   -779.58266    -3468.391    73.191051     63.38531    36.516039   -39629.214   -309112.68 
     290    1249.9301    169288.45    73.174035    73.174035    36.507549          120   -15563.799   -12083.273   -83501.342    108.20289   -1699.0076   -3719.2805    73.174035    63.370574    36.507549   -37049.471   -309117.68 
     300    1245.2397    169172.27    73.157291    73.157292    36.499196          120   -12079.709   -9773.1609   -76622.426    9.5044776   -1889.4884   -4564.3676    73.157291    63.356073    36.499196   -32825.099   -309123.58 
     310    1253.6205     169058.5    73.140888    73.140889    36.491012          120   -9955.8073   -7730.2859   -67002.431    323.08345    -2698.625   -5310.8488    73.140888    63.341868    36.491012   -28229.508   -309153.52 
     320    1237.7736    168947.57    73.124887    73.124888    36.483029          120   -7312.9769    -6694.182   -57358.954    600.68191   -1824.9083   -5104.6765    73.124887    63.328011    36.483029   -23788.704    -309136.9 
     330    1239.4017    168839.85    73.109342    73.109343    36.475274          120   -5476.0569   -4717.4806   -51397.157    951.09512   -731.15837   -5899.3829    73.109342    63.314548    36.475274   -20530.232   -309152.73 
     340    1240.5082    168735.45     73.09427    73.094271    36.467754          120   -5809.2425   -5573.8384   -54476.351    1185.2668   -571.91416   -5338.7815     73.09427    63.301496    36.467754   -21953.144   -309166.84 
     350    1253.1288    168633.95    73.079611    73.079612     36.46044          120   -7013.1477   -6115.3712   -58411.286    850.84131   -313.02216    -3520.242    73.079611    63.288801     36.46044   -23846.602   -309203.84 
     360    1250.5235    168534.77    73.065282    73.065283    36.453291          120   -9412.6971   -7523.2313   -65381.098    1073.3277   -1707.4338   -4468.1452    73.065282    63.276391    36.453291   -27439.009   -309212.43 
     370    1242.5398    168437.25    73.051186    73.051187    36.446259          120   -8316.8554      -6179.1   -70741.269    1894.1451   -1501.8736   -3656.8733    73.051186    63.264184    36.446259   -28412.408   -309210.63 
     380     1242.486    168340.99    73.037268    73.037268    36.439315          120   -5896.7601   -4458.2671   -72936.679    1281.9911   -462.43851   -3768.1158    73.037268     63.25213    36.439315   -27763.902   -309223.86 
     390    1233.1322    168245.91    73.023516    73.023516    36.432453          120   -4993.3498   -1751.2385   -66787.639   -99.937664    602.96543   -3474.9017    73.023516     63.24022    36.432453   -24510.743   -309218.96 
     400    1228.6318    168152.24    73.009961    73.009961    36.425691          120   -3303.5144    169.60348   -59304.312    3.8610266    2461.5105   -2795.3903    73.009961    63.228482    36.425691   -20812.741   -309222.17 
     410      1240.92    168060.29     72.99665    72.996651     36.41905          120    601.89833    3721.5949    -52554.41   -30.661268    916.56632   -1421.3744     72.99665    63.216954     36.41905   -16076.972   -309256.65 
     420     1234.977    167970.44    72.983639     72.98364    36.412558          120    2445.0053    4003.5516   -46742.594    428.42243    648.69529   -2243.7187    72.983639    63.205686    36.412558   -13431.346   -309256.77 
     430    1242.3914     167882.8    72.970944    72.970944    36.406224          120    1199.3471    3029.2294   -47266.576    1622.7911   -544.08017   -2962.4729    72.970944    63.194692    36.406224       -14346   -309283.58 
     440    1234.6754    167797.09    72.958524    72.958525    36.400028          120    819.55122    1708.9728   -48522.535   -636.51849    164.03632   -3547.6201    72.958524    63.183936    36.400028   -15331.337   -309280.27 
     450    1244.6046    167712.96    72.946329    72.946329    36.393944          120   -841.40142    1232.7387    -53978.07   -851.64348   -408.87927   -3137.5214    72.946329    63.173374    36.393944   -17862.244   -309311.71 
     460    1229.2575    167629.93    72.934289    72.934289    36.387937          120   -2106.1609    1042.6969   -57952.286   -1345.1223    561.72507   -1954.1103    72.934289    63.162948    36.387937   -19671.917   -309294.47 
     470    1237.9734    167547.66    72.922355    72.922355    36.381983          120   -303.38001     3769.513   -59382.844   -1229.1149    801.52805   -1680.0523    72.922355    63.152613    36.381983   -18638.904    -309323.1 
     480    1225.4963    167466.13    72.910524    72.910525     36.37608          120    2626.8036    4705.7894   -58796.159   -710.26653   -198.95696   -1929.9881    72.910524    63.142367     36.37608   -17154.522   -309310.86 
     490    1219.0792    167385.44    72.898813    72.898813    36.370237          120    5028.1128     7399.835   -56903.899    112.07258    1064.1603   -2462.3753    72.898813    63.132224    36.370237   -14825.317   -309309.36 
     500    1228.0172     167305.8    72.887249     72.88725    36.364468          120    4723.0791    7585.7528   -52474.155    755.95031    1055.9294   -3457.3874    72.887249     63.12221    36.364468   -13388.441   -309336.67 
     510    1225.3626    167227.32    72.875851    72.875852    36.358782          120     6593.283    7801.5455   -48731.818    764.07488     1040.626   -3424.1663    72.875851    63.112339    36.358782   -11445.663    -309341.8 
     520    1220.4771    167150.15    72.864639     72.86464    36.353188          120    7330.6706    9356.8334   -47324.599   -914.59234    720.02065   -3087.2238    72.864639    63.102629    36.353188   -10212.365   -309343.34 
     530    1225.8897    167074.34    72.853622    72.853622    36.347691          120    7965.8436    8839.0166   -47154.204   -1308.2085    499.98521   -3673.8132    72.853622    63.093088    36.347691   -10116.448   -309363.81 
     540    1205.1457    166999.86    72.842794    72.842795    36.342289          120    8459.8003    9420.6702   -47240.737   -417.90653    923.67928    -3555.515    72.842794    63.083711    36.342289   -9786.7556   -309333.58 
     550    1219.5895    166926.64    72.832147    72.832148    36.336977          120    8279.6989    10270.583   -49478.875   -1210.6345    -634.8209   -2327.0711    72.832147     63.07449    36.336977   -10309.531   -309371.08 
     560    1209.3467    166854.59    72.821667    72.821667    36.331748          120    9511.0448    12585.925   -48214.725    -1337.923    398.46322   -844.91259    72.821667    63.065414    36.331748   -8705.9182   -309359.96 
     570    1211.4391    166783.81    72.811368    72.811369     36.32661          120    10073.758    14517.825     -47274.7   -733.23718   -556.52431   -1256.7063    72.811368    63.056495     36.32661   -7561.0387    -309373.3 
     580    1210.8946    166714.38    72.801264    72.801264    36.321569          120    11166.944    14585.582   -46205.506   -444.56578   -436.00335   -2917.0841    72.801264    63.047745    36.321569   -6817.6603   -309380.76 
     590    1228.8556    166646.37    72.791362    72.791363    36.316629          120    12990.442     14231.98   -43714.155   -749.20417    898.14917    -3245.495    72.791362    63.039169    36.316629   -5497.2442   -309423.97 
     600     1213.714    166579.88    72.781681    72.781681    36.311799          120    14797.104    15820.019   -41530.344    356.49949   -140.98608   -4356.4839    72.781681    63.030785    36.311799   -3637.7404   -309403.56 
     610    1212.9807    166515.07     72.77224    72.772241    36.307089          120    14763.368    16332.827    -40652.05    354.23146    -1468.967   -3808.6474     72.77224    63.022609    36.307089   -3185.2851    -309410.9 
     620    1204.0513    166451.98    72.763048    72.763048    36.302502          120     16366.88     16743.75   -37907.883    189.06746   -976.57623    -1996.001    72.763048    63.014648    36.302502   -1599.0841   -309401.97 
     630    1207.7344    166390.66    72.754112    72.754112    36.298044          120    16088.061    15936.521   -39660.487      599.097    690.04275   -2075.4607    72.754112     63.00691    36.298044   -2545.3015   -309416.56 
     640    1206.7688    166330.97    72.745412    72.745412    36.293703          120    15920.406    17316.164   -40730.094    495.60525   -406.89346   -3322.3302    72.745412    62.999375    36.293703   -2497.8414   -309422.32 
     650    1215.8827    166272.83    72.736934    72.736934    36.289474          120    15363.824    16281.689   -42146.413    84.286562    260.33444    -4313.474    72.736934    62.992033    36.289474   -3500.3002   -309448.53 
     660    1202.3658    166216.06    72.728655    72.728655    36.285343          120    14878.451    13281.037   -41330.606    278.65755   -568.63904    -4098.095    72.728655    62.984863    36.285343   -4390.3728   -309429.68 
     670    1204.2484    166160.51    72.720552    72.720552      36.2813          120    15906.276    15847.783   -41574.524   -66.011288   -622.49498   -2972.3556    72.720552    62.977846      36.2813   -3273.4883   -309440.19 
     680    1223.0201    166106.28     72.71264     72.71264    36.277353          120    16376.009    19815.832     -38380.6    699.97824   -1092.6294   -1659.8834     72.71264    62.970994    36.277353   -729.58641   -309482.88 
     690    1193.8867    166053.63    72.704957    72.704957     36.27352          120    17154.462    20795.224    -37394.17     1580.183   -278.18578   -3025.9081    72.704957     62.96434     36.27352    185.17225   -309434.07 
     700    1200.4546    166002.63    72.697512    72.697512    36.269806          120    17764.685    19498.849   -35047.697    1514.8923   -205.06457   -2972.4505    72.697512    62.957893    36.269806    738.61239   -309454.29 
     710    1204.2695     165953.3    72.690311    72.690312    36.266213          120    19503.191    20935.914   -35688.805    1415.9311   -225.92499   -3559.9825    72.690311    62.951657    36.266213    1583.4333   -309467.62 
     720    1188.5833    165905.69    72.683358    72.683359    36.262744          120     18705.83    20613.695   -37017.734    1058.8738   -284.86335   -3843.6087    72.683358    62.945635    36.262744    767.26396   -309443.56 
     730    1206.1104    165859.63    72.676632    72.676633    36.259388          120    17647.783    20616.931   -33916.314   -35.028643   -1265.5189   -2421.4095    72.676632    62.939811    36.259388    1449.4667   -309482.28 
     740    1202.7775    165815.16    72.670137    72.670137    36.256148          120    18657.881    21467.477   -34149.624   -755.15122   -916.87496   -3033.8792    72.670137    62.934185    36.256148    1991.9115   -309481.92 
     750    1198.8004     165772.3    72.663874    72.663874    36.253023          120    19851.902    21596.765   -35558.767    207.58201   -1685.4185   -4505.1514    72.663874    62.928761    36.253023    1963.3001    -309480.3 
     760     1193.232    165730.98    72.657836    72.657836    36.250011          120    20910.096    21755.155   -36319.808    734.86218   -2144.5986    -2283.171    72.657836    62.923532    36.250011    2115.1479   -309474.43 
     770    1200.1961    165691.18     72.65202    72.652021    36.247109          120    20841.401    22049.897   -33703.649   -814.75995   -1174.5328   -764.80782     72.65202    62.918496    36.247109    3062.5494   -309492.61 
     780    1191.1902    165652.97    72.646435    72.646435    36.244323          120    23176.328    22196.117   -33345.648   -109.92169     595.8908   -1442.6227    72.646435    62.913659    36.244323     4008.932    -309479.8 
     790    1192.8239    165616.41     72.64109    72.641091    36.241656          120    24184.136    23172.012   -31393.255   -964.60306   -140.45518   -2633.2871     72.64109     62.90903    36.241656    5320.9646   -309487.25 
     800    1199.3092    165581.61    72.636001    72.636002    36.239117          120    25077.476    24368.581   -33234.308   -1033.9101   -1289.0345   -3604.8267    72.636001    62.904623    36.239117    5403.9162   -309503.83 
     810    1199.3296    165548.52    72.631163    72.631163    36.236703          120    23662.548    24675.942   -33227.665   -1072.3251   -902.24571   -5395.7806    72.631163    62.900433    36.236703    5036.9416   -309507.81 
     820     1198.662    165517.06    72.626561    72.626561    36.234407          120    23065.396    24414.307   -31851.605   -249.64471   -1201.0245   -4207.2158    72.626561    62.896447    36.234407    5209.3663   -309509.53 
     830    1198.8318     165487.2    72.622193    72.622194    36.232228          120    24105.351    27071.054   -31940.698    80.502472   -274.89498   -3843.1665    72.622193    62.892665    36.232228    6411.9024   -309513.85 
     840    1201.5563       165459    72.618069    72.618069     36.23017          120    23563.888    26480.266   -33088.926    684.79949   -2516.9792   -4142.0024    72.618069    62.889093     36.23017    5651.7427   -309523.33 
     850    1192.4104    165432.36    72.614171    72.614172    36.228226          120    22571.021    25595.949   -33905.923     1694.538   -3154.8452   -3940.9597    72.614171    62.885718    36.228226    4753.6821   -309508.63 
     860    1175.2325    165407.09    72.610474    72.610475    36.226381          120    22230.725    24925.182   -34409.064     1616.268   -2486.7684   -3763.7066    72.610474    62.882516    36.226381    4248.9477    -309479.3 
     870     1196.182     165383.1    72.606963    72.606964    36.224629          120    23112.174    25951.695   -31666.532    775.40843    -1785.877   -3235.4038    72.606963    62.879475    36.224629    5799.1124   -309522.56 
     880    1192.6272    165360.52    72.603658    72.603659    36.222981          120    24319.322    26728.498   -30984.123   -92.649675   -181.77366   -2316.5995    72.603658    62.876613    36.222981    6687.8991   -309517.89 
     890    1183.7632    165339.44    72.600574    72.600574    36.221442          120    23315.619    26926.027   -30730.446   -499.32116    1369.9317   -63.878781    72.600574    62.873942    36.221442    6503.7333    -309502.7 
     900    1188.7383    165319.76    72.597693    72.597693    36.220004          120    21538.827    25951.842    -34890.01    53.490754    1533.5878    280.60661    72.597693    62.871447    36.220004    4200.2197   -309513.54 
     910    1194.9928    165301.19    72.594974    72.594974    36.218648          120    20883.964    25107.392   -34098.674   -22.542141    1372.3995   -1187.9974    72.594974    62.869092    36.218648    3964.2274   -309526.72 
     920    1189.9087    165283.65    72.592406    72.592407    36.217367          120    22205.992    26215.593   -32339.899    886.04123    1897.9056   -944.22201    72.592406    62.866869    36.217367    5360.5621   -309516.93 
     930    1189.1728    165267.27    72.590008    72.590008     36.21617          120    22450.857    27258.886   -31764.628    1338.3404    526.09016   -809.50546    72.590008    62.864791     36.21617    5981.7049   -309515.67 
     940    1200.3257    165252.09    72.587785    72.587786    36.215061          120    23313.255    25823.287   -32012.695    247.72468    403.08513   -498.90023    72.587785    62.862866    36.215061    5707.9492   -309536.99 
     950    1194.1524    165238.05     72.58573    72.585731    36.214036          120    23602.765    25805.305   -31458.284   -1433.3631    575.28987    -1850.149     72.58573    62.861087    36.214036    5983.2621   -309525.04 
     960    1195.0486    165225.16    72.583842    72.583843    36.213094          120    21922.014    25810.611   -30742.843   -2070.1537    161.19932   -2825.7325    72.583842    62.859452    36.213094    5663.2606   -309526.42 
     970    1188.0012    165213.35    72.582113    72.582113    36.212231          120    22567.203    25008.213    -30835.76   -2390.6381    702.55809   -2956.6819    72.582113    62.857954    36.212231    5579.8857   -309512.38 
     980    1195.0189    165202.56    72.580533    72.580533    36.211443          120    22306.761    24687.835   -30368.253   -1332.7099    1882.5538   -3046.1353    72.580533    62.856586    36.211443    5542.1142   -309523.74 
     990    1202.9108     165192.8    72.579103    72.579104     36.21073          120    23552.842     27780.06    -29627.77    104.29297    2951.3186   -3074.6965    72.579103    62.855348     36.21073    7235.0444   -309537.84 
    1000    1183.4454    165184.19    72.577842    72.577843    36.210101          120    24358.555    25697.538   -30685.776   -226.92714    1681.9492   -702.93022    72.577842    62.854256    36.210101    6456.7725    -309499.4 
Loop time of 319.463 on 1 procs for 1000 steps with 14848 atoms

Performance: 0.270 ns/day, 88.740 hours/ns, 3.130 timesteps/s
100.0% CPU use with 1 MPI tasks x no OpenMP threads

MPI task timing breakdown:
Section |  min time  |  avg time  |  max time  |%varavg| %total
---------------------------------------------------------------
Pair    | 231.63     | 231.63     | 231.63     |   0.0 | 72.51
Bond    | 0.00021434 | 0.00021434 | 0.00021434 |   0.0 |  0.00
Kspace  | 10.88      | 10.88      | 10.88      |   0.0 |  3.41
Neigh   | 70.226     | 70.226     | 70.226     |   0.0 | 21.98
Comm    | 0.45366    | 0.45366    | 0.45366    |   0.0 |  0.14
Output  | 0.010525   | 0.010525   | 0.010525   |   0.0 |  0.00
Modify  | 6.1605     | 6.1605     | 6.1605     |   0.0 |  1.93
Other   |            | 0.09829    |            |       |  0.03

Nlocal:    14848 ave 14848 max 14848 min
Histogram: 1 0 0 0 0 0 0 0 0 0
Nghost:    46637 ave 46637 max 46637 min
Histogram: 1 0 0 0 0 0 0 0 0 0
Neighs:    9.96169e+06 ave 9.96169e+06 max 9.96169e+06 min
Histogram: 1 0 0 0 0 0 0 0 0 0

Total # of neighbors = 9961692
Ave neighs/atom = 670.911
Ave special neighs/atom = 0
Neighbor list builds = 256
Dangerous builds = 0
PPPM initialization ...
  using 12-bit tables for long-range coulomb (../kspace.cpp:321)
  G vector (1/distance) = 0.202411
  grid = 36 50 24
  stencil order = 5
  estimated absolute RMS force accuracy = 0.00100977
  estimated relative force accuracy = 7.01248e-05
  using double precision FFTs
  3d grid and FFT values/proc = 65395 43200
Setting up Verlet run ...
  Unit style    : metal
  Current step  : 0
  Time step     : 0.001
Per MPI rank memory allocation (min/avg/max) = 150.3 | 150.3 | 150.3 Mbytes
Step Temp Volume Cella Cellb Cellc CellGamma Pxx Pyy Pzz Pxy Pxz Pyz Lx Ly Lz Press PotEng 
       0    1183.4454    165184.19    72.577842    72.577843    36.210101          120    24367.066    25706.343   -30683.028    -226.8243    1681.8747   -702.85281    72.577842    62.854256    36.210101    6463.4606   -309499.29 
  100000    1190.3044    167751.04    72.951849     72.95185    36.396698          120    16155.221    18969.851   -37624.847    946.30611    837.25286   -1740.7836    72.951849    63.178155    36.396698   -833.25837   -309721.06 
Loop time of 31281.9 on 1 procs for 100000 steps with 14848 atoms

Performance: 0.276 ns/day, 86.894 hours/ns, 3.197 timesteps/s
100.0% CPU use with 1 MPI tasks x no OpenMP threads

MPI task timing breakdown:
Section |  min time  |  avg time  |  max time  |%varavg| %total
---------------------------------------------------------------
Pair    | 22544      | 22544      | 22544      |   0.0 | 72.07
Bond    | 0.017134   | 0.017134   | 0.017134   |   0.0 |  0.00
Kspace  | 1069.3     | 1069.3     | 1069.3     |   0.0 |  3.42
Neigh   | 7003.9     | 7003.9     | 7003.9     |   0.0 | 22.39
Comm    | 45.221     | 45.221     | 45.221     |   0.0 |  0.14
Output  | 9.8944e-05 | 9.8944e-05 | 9.8944e-05 |   0.0 |  0.00
Modify  | 609.53     | 609.53     | 609.53     |   0.0 |  1.95
Other   |            | 9.752      |            |       |  0.03

Nlocal:    14848 ave 14848 max 14848 min
Histogram: 1 0 0 0 0 0 0 0 0 0
Nghost:    46222 ave 46222 max 46222 min
Histogram: 1 0 0 0 0 0 0 0 0 0
Neighs:    9.80725e+06 ave 9.80725e+06 max 9.80725e+06 min
Histogram: 1 0 0 0 0 0 0 0 0 0

Total # of neighbors = 9807248
Ave neighs/atom = 660.51
Ave special neighs/atom = 0
Neighbor list builds = 25448
Dangerous builds = 0
 
All done!
Total wall time: 8:46:42
