LAMMPS (16 Mar 2018)
Reading data file ...
  triclinic box = (0 0 0) to (9.208 7.97436 18.376) with tilt (-4.604 0 0)
  1 by 1 by 1 MPI processor grid
  reading atoms ...
  116 atoms
Finding 1-2 1-3 1-4 neighbors ...
  special bond factors lj:   0          0          0         
  special bond factors coul: 0          0          0         
  0 = max # of 1-2 neighbors
  0 = max # of 1-3 neighbors
  0 = max # of 1-4 neighbors
  1 = max # of special neighbors
Replicating atoms ...
  triclinic box = (0 0 0) to (73.664 63.7949 36.752) with tilt (-36.832 0 0)
  1 by 1 by 1 MPI processor grid
  14848 atoms
Finding 1-2 1-3 1-4 neighbors ...
  special bond factors lj:   0          0          0         
  special bond factors coul: 0          0          0         
  0 = max # of 1-2 neighbors
  0 = max # of 1-3 neighbors
  0 = max # of 1-4 neighbors
  1 = max # of special neighbors
  Time spent = 0.0034771 secs
PPPM initialization ...
WARNING: System is not charge neutral, net charge = -0.2048 (../kspace.cpp:302)
  using 12-bit tables for long-range coulomb (../kspace.cpp:321)
  G vector (1/distance) = 0.201681
  grid = 36 50 24
  stencil order = 5
  estimated absolute RMS force accuracy = 0.00105653
  estimated relative force accuracy = 7.33721e-05
  using double precision FFTs
  3d grid and FFT values/proc = 65395 43200
Neighbor list info ...
  update every 1 steps, delay 0 steps, check yes
  max neighbors/atom: 2000, page size: 100000
  master list distance cutoff = 15.3
  ghost atom cutoff = 15.3
  binsize = 7.65, bins = 15 9 5
  3 neighbor lists, perpetual/occasional/extra = 3 0 0
  (1) pair morse, perpetual
      attributes: half, newton on
      pair build: half/bin/newton/tri
      stencil: half/bin/3d/newton/tri
      bin: standard
  (2) pair buck, perpetual, copy from (1)
      attributes: half, newton on
      pair build: copy
      stencil: none
      bin: none
  (3) pair lj/cut/coul/long, perpetual, copy from (1)
      attributes: half, newton on
      pair build: copy
      stencil: none
      bin: none
Setting up Verlet run ...
  Unit style    : metal
  Current step  : 0
  Time step     : 0.001
Per MPI rank memory allocation (min/avg/max) = 145.7 | 145.7 | 145.7 Mbytes
Step Temp Volume Cella Cellb Cellc CellGamma Pxx Pyy Pzz Pxy Pxz Pyz Lx Ly Lz Press PotEng 
       0          200    172711.88       73.664    73.664001       36.752          120   -201941.23   -201970.93   -273508.06    17.047678   -5.0886883    6.8009069       73.664    63.794896       36.752   -225806.74   -308813.33 
      10    314.56864    172613.62    73.650027    73.650028    36.745029          120   -205561.91   -205661.37   -252184.31    98.724545   -11.596028   -147.90813    73.650027    63.782795    36.745029   -221135.87   -309072.51 
      20    570.47112    172324.68     73.60891    73.608911    36.724515          120   -205200.86   -204848.64   -192377.11     18.11293   -212.76965   -319.97792     73.60891    63.747187    36.724515   -200808.87   -309619.89 
      30    549.68329    171871.19    73.544283    73.544284    36.692272          120   -181592.61   -181129.43   -111867.25   -209.27183    -739.1159   -393.01159    73.544283    63.691218    36.692272   -158196.43   -309656.05 
      40    325.78434    171311.01    73.464295    73.464296    36.652365          120   -142011.41   -142014.35   -33881.397    -488.4683   -1105.4568   -443.72946    73.464295    63.621947    36.652365   -105969.05   -309287.25 
      50     409.4921    170721.39    73.379915    73.379916    36.610266          120   -101578.92   -101915.62   -577.71597   -586.50614   -1174.6592   -588.27707    73.379915    63.548871    36.610266   -68024.084   -309484.71 
      60    720.21479     170164.9    73.300098    73.300098    36.570444          120   -72707.285   -72589.004   -36376.119   -569.00263   -2094.7635   -454.53964    73.300098    63.479748    36.570444   -60557.469   -310121.64 
      70    902.54208    169665.18    73.228275    73.228275     36.53461          120   -51331.711   -51000.576   -99722.879   -1421.8993   -2407.4619   -371.74053    73.228275    63.417547     36.53461   -67351.722   -310545.34 
      80    753.85351    169217.95    73.163876    73.163877    36.502481          120   -37585.761   -38106.575   -144669.33   -1717.9545   -2954.6243    94.529016    73.163876    63.361776    36.502481   -73453.889   -310336.35 
      90    484.02174    168809.64    73.104983    73.104983    36.473098          120   -31157.602   -31662.884   -158831.08    -1819.075   -3477.2097   -60.531779    73.104983    63.310773    36.473098   -73883.856   -309875.62 
     100    514.87499    168428.76    73.049959     73.04996    36.445646          120   -16870.561   -16777.647   -138745.24   -1588.6453   -3254.4965   -595.90344    73.049959    63.263121    36.445646   -57464.481   -309979.43 
     110    688.83235    168075.26    72.998818    72.998819    36.420131          120    1569.8906       1567.5   -96138.253   -1654.5143   -2587.7824    -606.1013    72.998818    63.218832    36.420131   -31000.288   -310366.62 
     120    676.43068    167756.71    72.952671    72.952672    36.397108          120    11940.535    12116.228   -44687.162   -1627.8744   -2175.3109    -1061.003    72.952671    63.178867    36.397108   -6876.7996   -310402.65 
     130    566.79993    167479.37    72.912447    72.912447    36.377039          120    9999.4578    11042.327   -4038.8294   -1700.9072   -2237.8571   -1042.0224    72.912447    63.144032    36.377039    5667.6519   -310242.05 
     140    527.61004     167242.5    72.878056    72.878057    36.359882          120    4958.9952    5108.7048    8332.1376   -1354.6117   -2084.2806   -877.37636    72.878056    63.114249    36.359882    6133.2792   -310206.81 
     150    589.27423    167037.96    72.848333    72.848334    36.345052          120   -2128.0509   -903.07721   -17003.009   -1998.6774   -1612.4879   -377.94794    72.848333    63.088508    36.345052   -6678.0457   -310368.13 
     160    647.81344    166850.42    72.821059     72.82106    36.331445          120   -12675.689   -10575.848   -55486.529   -1762.5305   -1751.6297   -204.81936    72.821059    63.064888    36.331445   -26246.022   -310534.56 
     170    616.33139    166662.58    72.793722    72.793723    36.317806          120   -17518.825   -15169.098   -85774.965   -695.04321    -2434.325   -536.25911    72.793722    63.041213    36.317806   -39487.629   -310533.03 
     180    533.22663    166463.91    72.764787    72.764787     36.30337          120   -13511.514   -11007.675   -101697.98    -393.5562   -2654.9804   -708.63478    72.764787    63.016154     36.30337   -42072.389   -310426.55 
     190    517.41085     166253.2    72.734071    72.734072    36.288045          120   -7927.4647   -5801.7113   -97659.685    356.52261   -2390.8329   -428.41093    72.734071    62.989554    36.288045    -37129.62   -310442.66 
     200    559.82804    166035.65    72.702332    72.702333    36.272211          120   -3326.9396   -1920.3971   -76400.925   -175.01026   -2717.3931   -485.94263    72.702332    62.962067    36.272211   -27216.087   -310571.82 
     210    562.06573    165819.92    72.670831    72.670832    36.256494          120    625.03169    2576.0622   -50842.153   -873.29041   -2974.9127   -227.57952    72.670831    62.934787    36.256494   -15880.353   -310627.08 
     220    527.42604    165614.86    72.640862    72.640863    36.241542          120    4233.4811    5581.3232    -31150.71     -178.442   -2463.3038     -824.305    72.640862    62.908833    36.241542   -7111.9687   -310607.08 
     230    504.51644    165426.18    72.613267    72.613268    36.227775          120    5474.4322    5914.5715   -24950.555    14.113126   -1856.8062   -1519.6261    72.613267    62.884935    36.227775    -4520.517    -310605.5 
     240    512.96193    165254.32    72.588112    72.588113    36.215225          120    3745.6636    3695.5017   -31887.525    149.50425   -2310.8619   -1941.0138    72.588112     62.86315    36.215225   -8148.7866   -310663.56 
     250    529.50553     165094.9    72.564762    72.564763    36.203575          120    1083.9181    668.58311   -47813.905    378.49305   -2152.2575   -2221.5426    72.564762    62.842928    36.203575   -15353.801   -310740.22 
     260    515.99679    164941.47    72.542277    72.542277    36.192356          120    973.57363   -783.35658   -63749.911     232.9867   -2143.0107   -1932.2006    72.542277    62.823455    36.192356   -21186.565   -310760.87 
     270    485.31912    164789.14    72.519938    72.519939    36.181211          120    1783.0388    171.37034   -71963.742   -670.95755   -2262.5689   -1110.8145    72.519938    62.804109    36.181211   -23336.444   -310746.14 
     280    472.17332    164636.25    72.497503    72.497504    36.170018          120    2781.4466    2771.7371   -69125.568   -501.35545   -1853.7743   -319.95789    72.497503     62.78468    36.170018   -21190.795    -310761.3 
     290    477.77013     164484.5    72.475223    72.475223    36.158902          120     5721.642     6915.973   -57686.014   -490.58491   -2126.7294     260.9295    72.475223    62.765385    36.158902   -15016.133   -310812.71 
     300    476.33887    164338.24    72.453734    72.453735    36.148181          120    9541.8449    11102.508   -42336.495   -28.642745   -2145.0612    559.24671    72.453734    62.746775    36.148181    -7230.714   -310850.61 
     310    461.54485    164202.48    72.433777    72.433777    36.138224          120    11935.174    13593.441   -27988.642    888.62958   -2142.9405     290.0106    72.433777    62.729491    36.138224   -820.00894   -310861.17 
     320    448.29301     164080.5    72.415837    72.415837    36.129274          120    11486.961    12982.502    -21307.89    575.35177   -2035.8377   -433.49141    72.415837    62.713955    36.129274    1053.8577   -310872.45 
     330     445.9632     163972.1    72.399886    72.399887    36.121316          120     9563.442    11655.656   -23544.824    268.36639   -2150.2816    -1033.946    72.399886    62.700141    36.121316   -775.24198    -310903.7 
     340    445.33365    163874.38    72.385501    72.385502    36.114139          120    8946.9358    11122.478   -33957.998    374.65089   -1555.6213   -1016.3003    72.385501    62.687684    36.114139   -4629.5279    -310938.1 
     350    434.90086    163783.24    72.372079     72.37208    36.107443          120      9133.69    10676.019   -46412.608   -5.9690238    -1246.181   -721.70488    72.372079     62.67606    36.107443    -8867.633   -310953.36 
     360    418.40904    163694.89    72.359063    72.359064    36.100949          120    9287.3336    11684.209   -52506.029   -194.46771   -980.26092    -1456.901    72.359063    62.664788    36.100949   -10511.495   -310955.57 
     370     404.3966    163607.69    72.346213    72.346213    36.094537          120    10516.598    14150.172   -52118.114   -213.07754    -1623.836   -1547.6709    72.346213    62.653659    36.094537   -9150.4481   -310960.74 
     380    405.99052    163522.35    72.333631    72.333631     36.08826          120    12969.879    16296.831   -46123.011    -249.8147   -1390.7979   -1380.5241    72.333631    62.642762     36.08826   -5618.7668   -310994.91 
     390    404.24503    163441.14    72.321656    72.321656    36.082286          120    15575.513    17735.707   -35559.951   -540.80503   -1837.7269   -1578.7219    72.321656    62.632392    36.082286   -749.57717   -311022.39 
     400    389.83406    163367.04    72.310724    72.310725    36.076832          120    17124.688    18971.178   -25860.288     208.6982   -2358.6346   -1023.0321    72.310724    62.622925    36.076832    3411.8595   -311024.87 
     410    383.39716    163302.18    72.301153    72.301154    36.072057          120    17569.349    18954.178   -22269.482    141.37707   -2091.5736   -1148.6386    72.301153    62.614636    36.072057    4751.3483   -311041.24 
     420    383.34891    163246.63    72.292954    72.292955    36.067966          120    17080.718    18454.295   -24733.938   -154.54163    -2089.539   -812.08581    72.292954    62.607535    36.067966    3600.3584   -311069.79 
     430    375.67721    163198.65     72.28587     72.28587    36.064432          120    15354.609    17855.668   -30266.788    421.77543   -1661.1648   -367.69579     72.28587      62.6014    36.064432    981.16312   -311083.39 
     440    368.59999    163155.56    72.279508    72.279508    36.061257          120    14957.166    16124.457   -37057.562     606.2137   -1617.5167    66.949697    72.279508     62.59589    36.061257   -1991.9795   -311097.19 
     450    359.76898    163114.79    72.273487    72.273487    36.058253          120     15868.35    15409.372   -40752.142    481.77369   -1623.3543   -324.16223    72.273487    62.590676    36.058253   -3158.1402   -311106.56 
     460    353.09089    163075.28    72.267651    72.267652    36.055342          120    17928.121    17119.849   -40097.825     700.9218   -1298.5339    -825.8204    72.267651    62.585622    36.055342   -1683.2851   -311118.91 
     470    346.08345    163037.85    72.262122    72.262123    36.052584          120    19402.338    18471.073   -35936.464    755.63422   -1166.1041   -182.23568    72.262122    62.580834    36.052584    645.64897   -311129.82 
     480    345.22299    163003.96    72.257115    72.257115    36.050085          120    19966.521    19313.108   -30746.959    653.87539   -996.71579    -582.8031    72.257115    62.576498    36.050085    2844.2231   -311151.93 
     490    339.57286    162974.86    72.252814    72.252815     36.04794          120    20175.991    19982.699    -26617.87    842.86304   -1280.0595   -316.44476    72.252814    62.572773     36.04794    4513.6068   -311164.63 
     500    332.87977     162951.4    72.249348    72.249348     36.04621          120     20198.86    21117.608   -24499.936     752.1804   -1748.2845    468.47344    72.249348    62.569771     36.04621    5605.5105   -311174.74 
     510    328.81587    162933.81    72.246748    72.246748    36.044913          120    19640.031    20553.514   -25671.655    756.85882    -2064.537     395.4445    72.246748     62.56752    36.044913    4840.6302   -311189.16 
     520    321.22219    162921.16    72.244878    72.244878     36.04398          120    19503.211    19936.616   -28393.202     566.8797   -2106.0979     389.0692    72.244878      62.5659     36.04398    3682.2084   -311196.09 
     530    320.95801    162912.15    72.243546    72.243547    36.043316          120    18942.334    19789.527   -32660.506    656.21947   -1812.2549    1060.9673    72.243546    62.564747    36.043316     2023.785    -311216.9 
     540    314.18733    162905.31    72.242535    72.242536    36.042811          120    18176.615    19458.335   -35798.095    525.28186   -1990.7485     843.1344    72.242535    62.563871    36.042811    612.28507   -311224.36 
     550    309.10149    162899.54    72.241681    72.241682    36.042385          120    17886.114    20233.563   -35724.002    384.23154   -1677.4979    864.12135    72.241681    62.563132    36.042385    798.55846   -311234.27 
     560    305.34721    162894.84    72.240988    72.240988    36.042039          120    18907.209    21089.423   -33484.141   -255.18585   -1507.5805    920.14244    72.240988    62.562531    36.042039    2170.8304   -311246.65 
     570    297.98775    162892.15     72.24059     72.24059    36.041841          120    20472.451    21501.127   -29685.748    -483.7311   -1636.3265    695.47603     72.24059    62.562186    36.041841    4095.9432   -311251.52 
     580    296.52361    162892.72    72.240673    72.240674    36.041882          120    21178.335    22034.188   -26032.036   -90.903444   -2093.5499    526.45365    72.240673    62.562259    36.041882    5726.8293   -311266.93 
     590    294.10149    162897.47    72.241376    72.241376    36.042233          120    20965.646    21677.128   -24296.233    -7.542292   -2386.7606    234.88323    72.241376    62.562867    36.042233    6115.5139   -311280.09 
     600    286.16271    162906.41    72.242698    72.242699    36.042893          120    21432.348     20708.51   -26204.563    148.44528   -2078.3491   -45.398653    72.242698    62.564012    36.042893    5312.0987   -311282.25 
     610    283.37237    162918.71    72.244515    72.244516    36.043799          120    20970.078     20337.38   -29851.671   -2.1000471   -2747.7607   -581.34764    72.244515    62.565586    36.043799    3818.5958   -311293.54 
     620    282.09555    162933.05    72.246635    72.246636    36.044857          120    20118.061    19270.302   -32584.434    265.38896   -2731.0837   -644.09154    72.246635    62.567422    36.044857    2267.9763    -311308.2 
     630     275.6726    162948.22    72.248877    72.248878    36.045976          120    20268.345    18463.187   -34470.933   -17.690115   -2819.6821   -775.98279    72.248877    62.569364    36.045976    1420.1996   -311311.83 
     640    271.50288    162963.56    72.251145    72.251145    36.047107          120    20696.847    18598.965   -34553.772   -73.245955   -2857.3341   -689.18466    72.251145    62.571327    36.047107    1580.6801   -311318.81 
     650    269.52416    162979.14    72.253447    72.253447    36.048255          120    21165.218    18860.385   -33468.594   -119.08325   -2798.8372    -697.4527    72.253447    62.573321    36.048255    2185.6695    -311330.1 
     660    267.76587    162995.43    72.255854    72.255854    36.049456          120    21602.698    19281.321   -31068.954   -60.797978   -2686.7241   -1333.2179    72.255854    62.575406    36.049456    3271.6883   -311341.61 
     670    262.95115    163013.18    72.258477    72.258477    36.050765          120    21606.301    19526.511    -28370.96   -291.81374   -2377.1288    -1272.949    72.258477    62.577677    36.050765    4253.9508   -311347.16 
     680     259.4436    163032.98    72.261402    72.261403    36.052224          120    20661.918    19794.075   -28160.993   -278.98428   -2908.7314   -978.49719    72.261402    62.580211    36.052224    4098.3334   -311354.35 
     690    254.89694    163054.65    72.264603    72.264603    36.053821          120     19751.73    19510.825   -29428.241   -441.69551   -2873.5338   -1168.1629    72.264603    62.582982    36.053821    3278.1046   -311358.94 
     700     252.8095    163077.45    72.267972    72.267973    36.055502          120     19102.12     18541.86   -31407.577   -444.91555   -2829.6672   -761.87352    72.267972      62.5859    36.055502    2078.8012   -311368.02 
     710    251.62687    163100.49    72.271375    72.271376      36.0572          120    18646.842    18554.886   -33129.964   -523.03846   -2749.3788   -1044.8341    72.271375    62.588848      36.0572    1357.2547   -311378.24 
     720    248.05453    163123.23    72.274733    72.274733    36.058875          120    18475.652    19156.503   -34218.663   -280.94587   -3018.2486   -935.82329    72.274733    62.591755    36.058875    1137.8306   -311383.53 
     730    244.84482    163145.55    72.278029     72.27803     36.06052          120    18843.088    19319.712    -33693.56    363.81898   -2442.4426   -1495.3435    72.278029     62.59461     36.06052    1489.7464   -311388.77 
     740    244.09548    163167.68    72.281297    72.281298     36.06215          120    19047.634    19133.464   -33403.534    556.09403    -2192.358   -1610.5965    72.281297     62.59744     36.06215    1592.5214   -311399.48 
     750    239.27485    163189.76    72.284558    72.284558    36.063777          120    19413.527    18779.102   -32537.939    324.87615   -2720.5816    -1195.249    72.284558    62.600264    36.063777    1884.8969   -311401.08 
     760    235.32173    163212.02    72.287845    72.287846    36.065417          120     19296.15    18975.672   -31036.282    798.19354   -2283.0679    -1030.399    72.287845    62.603111    36.065417    2411.8466   -311404.47 
     770    232.37945    163234.83    72.291211    72.291212    36.067096          120    18887.974    19518.259   -30559.509      764.664   -2340.9964   -804.77717    72.291211    62.606026    36.067096    2615.5748   -311409.63 
     780    232.21667    163258.28    72.294674    72.294674    36.068824          120    18576.761    19109.977    -30926.55    485.33613     -2015.58   -1364.9035    72.294674    62.609025    36.068824    2253.3961   -311419.52 
     790     230.9685    163282.11    72.298191    72.298191    36.070579          120     18368.91    18583.172   -32549.069    520.55722   -1440.4647   -1898.1761    72.298191     62.61207    36.070579    1467.6708   -311427.46 
     800    226.75958    163305.69    72.301671    72.301672    36.072315          120    17745.841    18317.322   -35503.035    947.78715   -1777.6405   -1876.8703    72.301671    62.615085    36.072315    186.70937   -311429.11 
     810     225.2496    163328.12    72.304981    72.304981    36.073966          120    17005.109     17064.81   -36718.013    987.45281   -1634.2779   -1599.2804    72.304981    62.617951    36.073966   -882.69828   -311435.54 
     820    224.43995    163348.74    72.308024    72.308025    36.075485          120    17773.335    16789.274    -36356.63    1117.7248   -1485.6077   -1473.4114    72.308024    62.620586    36.075485   -598.00691   -311443.57 
     830    223.51382     163367.8    72.310836    72.310837    36.076888          120    18307.772    17112.282   -35435.248    1412.9664   -1443.4939   -1525.7282    72.310836    62.623022    36.076888    -5.064634   -311450.74 
     840     219.0147    163385.85    72.313499      72.3135    36.078216          120    18709.037     18056.53   -34316.516    715.30064    -1352.986   -927.72888    72.313499    62.625328    36.078216    816.35058   -311450.32 
     850    216.80999    163403.51    72.316103    72.316104    36.079516          120    18250.535    18329.318   -33511.315    399.77986    -1530.114   -819.13666    72.316103    62.627583    36.079516    1022.8458   -311454.22 
     860    216.34821    163420.98    72.318681    72.318681    36.080801          120    17763.069    17957.124   -33243.165     311.2813    -1621.576   -1165.6641    72.318681    62.629815    36.080801    825.67622   -311460.73 
     870    212.90896    163438.14    72.321213    72.321214    36.082065          120    17394.257     17620.93   -33506.222    293.37354   -1907.2755   -1139.5474    72.321213    62.632008    36.082065    502.98848   -311462.15 
     880    212.00825    163454.76    72.323663    72.323664    36.083287          120    17452.571    16939.868   -35061.031    636.03785   -1667.4053   -1039.4209    72.323663     62.63413    36.083287   -222.86432   -311467.77 
     890    208.97092    163470.34    72.325962    72.325963    36.084434          120    17408.902    15982.307   -36106.162    682.93631   -1624.3692   -859.67435    72.325962    62.636121    36.084434   -904.98421   -311469.23 
     900    207.55678    163484.46    72.328043    72.328044    36.085473          120    17002.259    15547.934   -36219.954    422.63036   -1969.7921   -1467.1335    72.328043    62.637924    36.085473   -1223.2537   -311473.32 
     910    207.11281    163496.92    72.329882    72.329882     36.08639          120    16948.342     15434.53   -36210.755    399.49732   -2104.0159   -1746.9161    72.329882    62.639516     36.08639    -1275.961   -311478.76 
     920    205.81877     163507.8    72.331485    72.331486     36.08719          120    16912.914    15806.688   -35692.254     472.6698   -2011.0829   -1537.6455    72.331485    62.640905     36.08719    -990.8842    -311482.5 
     930    204.52705    163517.39      72.3329    72.332901    36.087896          120    16857.864    16457.735   -34488.607    821.59806    -1708.223   -930.90857      72.3329     62.64213    36.087896    -391.0028   -311485.88 
     940    204.32509    163526.21    72.334201    72.334201    36.088545          120    16765.919    17078.413   -33557.378    1172.3776   -1855.5126   -1071.8862    72.334201    62.643256    36.088545    95.651223   -311490.69 
     950    202.59264    163534.62     72.33544     72.33544    36.089163          120    16498.159    17353.932     -34097.2    613.12601      -1803.5    -1863.051     72.33544    62.644329    36.089163   -81.702881   -311493.11 
     960    200.16184    163542.55     72.33661     72.33661    36.089747          120    16645.251    17132.011   -34480.982    300.16062   -2001.9526   -1713.7494     72.33661    62.645342    36.089747   -234.57326   -311494.02 
     970     198.9656    163549.86    72.337687    72.337688    36.090284          120    16170.039    16502.766   -35675.222    421.40083    -2240.549   -1673.5822    72.337687    62.646275    36.090284   -1000.8057   -311496.67 
     980    197.91643    163556.09    72.338606    72.338607    36.090742          120    16467.266     16539.05   -36231.812    428.14214   -2335.5113   -1236.3085    72.338606    62.647071    36.090742   -1075.1653   -311499.15 
     990    196.59012    163561.18    72.339357    72.339357    36.091117          120    16556.133    16531.254   -36286.015    188.98703   -1901.7484   -1258.6281    72.339357    62.647721    36.091117   -1066.2094   -311500.86 
    1000    197.27756    163565.25    72.339957    72.339957    36.091416          120    16299.478    16890.761   -35277.378    253.42248   -1687.2724   -1238.1005    72.339957    62.648241    36.091416   -695.71325   -311506.31 
Loop time of 391.661 on 1 procs for 1000 steps with 14848 atoms

Performance: 0.221 ns/day, 108.795 hours/ns, 2.553 timesteps/s
100.0% CPU use with 1 MPI tasks x no OpenMP threads

MPI task timing breakdown:
Section |  min time  |  avg time  |  max time  |%varavg| %total
---------------------------------------------------------------
Pair    | 314.75     | 314.75     | 314.75     |   0.0 | 80.36
Bond    | 0.00056791 | 0.00056791 | 0.00056791 |   0.0 |  0.00
Kspace  | 14.58      | 14.58      | 14.58      |   0.0 |  3.72
Neigh   | 53.136     | 53.136     | 53.136     |   0.0 | 13.57
Comm    | 0.52575    | 0.52575    | 0.52575    |   0.0 |  0.13
Output  | 0.013771   | 0.013771   | 0.013771   |   0.0 |  0.00
Modify  | 8.4794     | 8.4794     | 8.4794     |   0.0 |  2.16
Other   |            | 0.1798     |            |       |  0.05

Nlocal:    14848 ave 14848 max 14848 min
Histogram: 1 0 0 0 0 0 0 0 0 0
Nghost:    46815 ave 46815 max 46815 min
Histogram: 1 0 0 0 0 0 0 0 0 0
Neighs:    1.00605e+07 ave 1.00605e+07 max 1.00605e+07 min
Histogram: 1 0 0 0 0 0 0 0 0 0

Total # of neighbors = 10060488
Ave neighs/atom = 677.565
Ave special neighs/atom = 0
Neighbor list builds = 156
Dangerous builds = 0
PPPM initialization ...
  using 12-bit tables for long-range coulomb (../kspace.cpp:321)
  G vector (1/distance) = 0.202571
  grid = 36 50 24
  stencil order = 5
  estimated absolute RMS force accuracy = 0.000999744
  estimated relative force accuracy = 6.94284e-05
  using double precision FFTs
  3d grid and FFT values/proc = 65395 43200
Setting up Verlet run ...
  Unit style    : metal
  Current step  : 0
  Time step     : 0.001
Per MPI rank memory allocation (min/avg/max) = 151.5 | 151.5 | 151.5 Mbytes
Step Temp Volume Cella Cellb Cellc CellGamma Pxx Pyy Pzz Pxy Pxz Pyz Lx Ly Lz Press PotEng 
       0    197.27756    163565.25    72.339957    72.339957    36.091416          120    16311.059    16902.991   -35271.096    253.65012   -1687.1413   -1238.1389    72.339957    62.648241    36.091416   -685.68197   -311506.14 
  100000    198.82699    164007.62    72.405113    72.405114    36.123924          120    17484.328    17273.726   -35485.389    826.02477   -2361.3433   -1141.5812    72.405113    62.704668    36.123924   -242.44498   -311569.89 
Loop time of 36350.8 on 1 procs for 100000 steps with 14848 atoms

Performance: 0.238 ns/day, 100.974 hours/ns, 2.751 timesteps/s
100.0% CPU use with 1 MPI tasks x no OpenMP threads

MPI task timing breakdown:
Section |  min time  |  avg time  |  max time  |%varavg| %total
---------------------------------------------------------------
Pair    | 30397      | 30397      | 30397      |   0.0 | 83.62
Bond    | 0.055191   | 0.055191   | 0.055191   |   0.0 |  0.00
Kspace  | 1483.6     | 1483.6     | 1483.6     |   0.0 |  4.08
Neigh   | 3555.5     | 3555.5     | 3555.5     |   0.0 |  9.78
Comm    | 47.158     | 47.158     | 47.158     |   0.0 |  0.13
Output  | 0.00012922 | 0.00012922 | 0.00012922 |   0.0 |  0.00
Modify  | 849.59     | 849.59     | 849.59     |   0.0 |  2.34
Other   |            | 17.58      |            |       |  0.05

Nlocal:    14848 ave 14848 max 14848 min
Histogram: 1 0 0 0 0 0 0 0 0 0
Nghost:    46784 ave 46784 max 46784 min
Histogram: 1 0 0 0 0 0 0 0 0 0
Neighs:    1.00324e+07 ave 1.00324e+07 max 1.00324e+07 min
Histogram: 1 0 0 0 0 0 0 0 0 0

Total # of neighbors = 10032420
Ave neighs/atom = 675.675
Ave special neighs/atom = 0
Neighbor list builds = 10463
Dangerous builds = 0
 
All done!
Total wall time: 10:12:23
