LAMMPS (16 Mar 2018)
Reading data file ...
  triclinic box = (0 0 0) to (9.208 7.97436 18.376) with tilt (-4.604 0 0)
  1 by 1 by 1 MPI processor grid
  reading atoms ...
  116 atoms
Finding 1-2 1-3 1-4 neighbors ...
  special bond factors lj:   0          0          0         
  special bond factors coul: 0          0          0         
  0 = max # of 1-2 neighbors
  0 = max # of 1-3 neighbors
  0 = max # of 1-4 neighbors
  1 = max # of special neighbors
Replicating atoms ...
  triclinic box = (0 0 0) to (73.664 63.7949 36.752) with tilt (-36.832 0 0)
  1 by 1 by 1 MPI processor grid
  14848 atoms
Finding 1-2 1-3 1-4 neighbors ...
  special bond factors lj:   0          0          0         
  special bond factors coul: 0          0          0         
  0 = max # of 1-2 neighbors
  0 = max # of 1-3 neighbors
  0 = max # of 1-4 neighbors
  1 = max # of special neighbors
  Time spent = 0.00384593 secs
PPPM initialization ...
WARNING: System is not charge neutral, net charge = -0.2048 (../kspace.cpp:302)
  using 12-bit tables for long-range coulomb (../kspace.cpp:321)
  G vector (1/distance) = 0.201681
  grid = 36 50 24
  stencil order = 5
  estimated absolute RMS force accuracy = 0.00105653
  estimated relative force accuracy = 7.33721e-05
  using double precision FFTs
  3d grid and FFT values/proc = 65395 43200
Neighbor list info ...
  update every 1 steps, delay 0 steps, check yes
  max neighbors/atom: 2000, page size: 100000
  master list distance cutoff = 15.3
  ghost atom cutoff = 15.3
  binsize = 7.65, bins = 15 9 5
  3 neighbor lists, perpetual/occasional/extra = 3 0 0
  (1) pair morse, perpetual
      attributes: half, newton on
      pair build: half/bin/newton/tri
      stencil: half/bin/3d/newton/tri
      bin: standard
  (2) pair buck, perpetual, copy from (1)
      attributes: half, newton on
      pair build: copy
      stencil: none
      bin: none
  (3) pair lj/cut/coul/long, perpetual, copy from (1)
      attributes: half, newton on
      pair build: copy
      stencil: none
      bin: none
Setting up Verlet run ...
  Unit style    : metal
  Current step  : 0
  Time step     : 0.001
Per MPI rank memory allocation (min/avg/max) = 145.7 | 145.7 | 145.7 Mbytes
Step Temp Volume Cella Cellb Cellc CellGamma Pxx Pyy Pzz Pxy Pxz Pyz Lx Ly Lz Press PotEng 
       0          400    172711.88       73.664    73.664001       36.752          120   -199544.77   -199611.87    -271142.4    32.795407   -10.173022    13.603454       73.664    63.794896       36.752   -223433.01   -308813.33 
      10    408.95052    172663.39    73.657106    73.657107    36.748561          120   -200526.76   -200626.89   -246826.47    129.22379   -23.168679   -200.41247    73.657106    63.788926    36.748561   -215993.37   -308856.41 
      20    684.21988    172521.32    73.636898    73.636898    36.738478          120   -196339.03   -196045.93   -185884.69     33.14496   -254.39019   -441.15254    73.636898    63.771425    36.738478   -192756.55   -309412.22 
      30    705.54366    172297.27    73.605007    73.605007    36.722567          120   -165230.09   -164948.81   -106152.44   -186.55914   -830.87071   -488.26709    73.605007    63.743806    36.722567   -145443.78    -309496.7 
      40    484.97039    172014.26    73.564685    73.564686     36.70245          120   -118831.28    -119182.7    -27582.42   -777.16015   -1136.7052   -515.39443    73.564685    63.708887     36.70245   -88532.134   -309099.32 
      50    582.47065    171700.42    73.519918    73.519919    36.680116          120   -82213.574    -82976.71   -1569.8773    -607.7638   -1093.6161   -613.13952    73.519918    63.670118    36.680116   -55586.721   -309299.81 
      60    861.32616    171375.42    73.473502    73.473502    36.656958          120   -63569.437   -63322.557   -44140.558   -805.35524   -1962.3883   -499.01017    73.473502     63.62992    36.656958    -57010.85   -309856.34 
      70    1012.9077    171045.79    73.426364    73.426365     36.63344          120   -51768.136   -51862.266   -108702.62    -1781.566   -2424.2688   -636.60101    73.426364    63.589097     36.63344   -70777.676   -310194.21 
      80    875.93169    170712.39    73.378627    73.378627    36.609623          120   -45534.789   -46871.216    -154263.4   -1798.2823   -2665.4093   -6.9941606    73.378627    63.547755    36.609623   -82223.134   -309984.53 
      90    627.44314    170376.86     73.33052    73.330521    36.585622          120   -41687.842   -42274.841   -167060.26   -1891.4598   -3115.2232   -731.88273     73.33052    63.506094    36.585622   -83674.315   -309550.99 
     100    652.32121     170044.7    73.282834    73.282835    36.561831          120   -26399.916   -26483.432   -146142.95   -1690.6794   -2831.6877   -1080.2226    73.282834    63.464797    36.561831   -66342.099   -309635.17 
     110    818.84703    169726.71    73.237125    73.237126    36.539026          120   -7028.4018   -7277.1041    -104907.3   -1662.7555   -1482.4125   -1277.2387    73.237125    63.425212    36.539026   -39737.602   -309995.53 
     120    828.74274    169434.39    73.195056    73.195057    36.518037          120    3895.0047    4067.3645   -56257.906   -1589.0724   -978.26733   -1295.6492    73.195056    63.388779    36.518037   -16098.512   -310059.34 
     130    729.92038    169174.69     73.15764    73.157641     36.49937          120    3362.4728    4882.3314   -17829.497   -1409.4139   -1127.8594   -1467.1025     73.15764    63.356376     36.49937   -3194.8978   -309908.84 
     140    684.13129    168947.99    73.124949    73.124949     36.48306          120    -777.0015   -588.31469   -4344.6324   -1042.8222   -849.98143   -1533.6166    73.124949    63.328064     36.48306   -1903.3162   -309852.23 
     150    730.96803    168749.11    73.096243    73.096244    36.468738          120   -8243.4977   -7038.9408   -25577.577   -1913.1075   -543.67657   -971.36448    73.096243    63.303204    36.468738   -13620.005   -309975.33 
     160    789.89444    168568.48    73.070154    73.070154    36.455722          120   -17818.852   -16442.616   -60392.618   -1746.0834   -1238.1675   -1251.3497    73.070154     63.28061    36.455722   -31551.362   -310129.67 
     170     781.5098    168395.61    73.045167    73.045168    36.443256          120   -22377.389   -21006.249   -90325.014   -1182.5481   -2106.9511   -1451.7259    73.045167    63.258971    36.443256   -44569.551   -310158.69 
     180    707.79107    168223.07     73.02021     73.02021    36.430804          120   -19988.567   -18034.182   -108188.76   -1235.4984   -2364.7462   -1714.1561     73.02021    63.237357    36.430804    -48737.17    -310061.4 
     190    679.97035    168047.71    72.994829    72.994829    36.418141          120   -15376.428   -13863.165   -107710.91   -364.08525   -2130.0958   -1365.8755    72.994829    63.215377    36.418141   -45650.168   -310046.71 
     200    717.40925    167869.85    72.969068    72.969069    36.405289          120   -10888.499   -10618.538   -89514.587   -813.09972   -2272.5148   -1585.2376    72.969068    63.193067    36.405289   -37007.208   -310157.23 
     210    733.91693    167692.07      72.9433      72.9433    36.392433          120   -7029.4672    -6547.091   -66890.306   -1382.3079   -1811.1311   -1302.1876      72.9433    63.170751    36.392433   -26822.288   -310229.38 
     220    712.38426    167517.61    72.917994    72.917995    36.379807          120   -4515.8124   -2717.4273   -48137.574   -1116.5533   -1234.0995   -2757.5487    72.917994    63.148836    36.379807   -18456.938   -310226.77 
     230    690.82915    167348.86    72.893501    72.893502    36.367587          120   -4163.1411   -2511.6545    -39133.61    -836.3136   -529.17175   -3164.6803    72.893501    63.127625    36.367587   -15269.469   -310222.01 
     240     686.3012    167186.26    72.869885    72.869886    36.355805          120   -6194.9325   -3973.6694   -42073.646   -428.34841   -1710.2678   -3524.3233    72.869885    63.107172    36.355805   -17414.083    -310249.9 
     250    698.67933    167028.28    72.846926    72.846926     36.34435          120   -8254.8812   -7285.0122   -54161.362     100.8729   -1990.0595   -3981.8511    72.846926    63.087289     36.34435   -23233.752   -310310.76 
     260    702.23168    166872.23    72.824233    72.824233    36.333028          120   -9592.3082   -9894.2546   -68962.873    296.85751    -2178.149   -4320.1543    72.824233    63.067636    36.333028   -29483.145   -310357.43 
     270    681.97313    166715.53     72.80143    72.801431    36.321652          120   -9558.1778   -10276.007    -79256.98   -78.331753   -1991.5846   -3057.1491     72.80143    63.047889    36.321652   -33030.388   -310358.16 
     280    658.51244     166556.9    72.778333    72.778333    36.310128          120   -8507.3788   -7973.7781   -80022.077   -312.39517   -1108.3702   -2089.4997    72.778333    63.027886    36.310128   -32167.745      -310351 
     290    657.66095    166396.92    72.755024    72.755024    36.298499          120   -5388.0652   -3763.8035   -71962.156    201.71283   -1253.0838   -2244.8619    72.755024    63.007699    36.298499   -27038.008   -310386.09 
     300    661.61143    166237.75    72.731818    72.731818    36.286921          120   -1299.9425    260.77406   -59712.574     615.5679   -741.64484   -1882.2361    72.731818    62.987603    36.286921   -20250.581    -310429.7 
     310    651.75885    166082.12    72.709115    72.709115    36.275594          120    2465.9094    3050.1299   -46939.471    977.23859    34.067235   -2071.7874    72.709115    62.967941    36.275594    -13807.81   -310445.37 
     320    638.80235    165932.35    72.687252    72.687253    36.264687          120    3895.1779    2958.3788   -37904.296    772.99824   -375.93126   -1950.7474    72.687252    62.949007    36.264687   -10350.246   -310454.46 
     330    633.27088    165789.49    72.666386    72.666387    36.254276          120    3539.9069    2633.3623   -35662.952    456.02122   -291.46787   -1543.8673    72.666386    62.930937    36.254276   -9829.8943   -310476.63 
     340    636.01368    165653.33    72.646487    72.646488    36.244349          120    1859.1563    2052.0447   -41549.343    380.22348    -279.2358   -2367.1557    72.646487    62.913704    36.244349   -12546.047   -310514.26 
     350    628.43256    165522.45     72.62735     72.62735    36.234801          120    1338.4073    1835.4313   -52810.627    425.39479    254.99665   -2879.0376     72.62735     62.89713    36.234801   -16545.596   -310532.84 
     360    611.40668    165395.05    72.608711    72.608712    36.225502          120    949.08532       2541.2   -61078.665   -348.84965    -378.7885   -2471.6306    72.608711    62.880989    36.225502   -19196.127   -310532.26 
     370     599.3204    165269.95    72.590401    72.590401    36.216366          120       2834.2    3196.9064   -62824.853   -483.93773   -1391.8375   -2854.1785    72.590401    62.865132    36.216366   -18931.249   -310539.97 
     380     597.5094    165147.14    72.572416    72.572417    36.207394          120    5176.1618     6319.394   -57680.357   -453.10274   -1937.9804   -3067.8271    72.572416    62.849557    36.207394   -15394.934   -310567.33 
     390    599.55577    165027.77    72.554926    72.554926    36.198667          120    8731.0162    8924.3201   -48957.729   -533.14387   -722.87339   -2582.0226    72.554926     62.83441    36.198667   -10434.131   -310600.87 
     400    587.12517    164913.48    72.538172    72.538173    36.190309          120    11606.709    11710.577   -39516.666   -655.40642   -114.29585    -1995.977    72.538172    62.819901    36.190309    -5399.793   -310605.81 
     410    582.06505     164805.7    72.522367    72.522367    36.182423          120    11940.136    12490.571   -33531.477   -612.44857    152.95281   -1588.2197    72.522367    62.806213    36.182423   -3033.5899   -310624.47 
     420    581.25471    164704.83    72.507569    72.507569     36.17504          120    10794.742    12760.433   -32751.429   -64.175331     388.9433   -683.18565    72.507569    62.793397     36.17504    -3065.418   -310650.64 
     430    580.49792     164610.3    72.493694    72.493694    36.168118          120    10129.962    11651.766   -36827.762     146.6717    545.87867   -1001.3817    72.493694    62.781381    36.168118   -5015.3447   -310676.85 
     440    574.29334    164520.86    72.480562    72.480563    36.161566          120    10180.444    9784.8159   -41884.153    637.36227   -308.29584   -1087.7213    72.480562    62.770009    36.161566   -7306.2977   -310693.01 
     450    563.63958    164435.21    72.467982    72.467983     36.15529          120    9787.1954     9050.517   -46740.361    1239.6076   -531.37874   -1467.0811    72.467982    62.759114     36.15529   -9300.8828   -310699.06 
     460    548.95111    164352.33    72.455804    72.455805    36.149214          120    10816.102    11170.093   -49034.429    1804.4649    449.61303   -1747.3842    72.455804    62.748568    36.149214    -9016.078   -310697.68 
     470    546.63756    164272.05    72.444006    72.444007    36.143328          120    13047.898    14370.011   -47426.537    1649.8537    479.82701   -1857.0767    72.444006     62.73835    36.143328   -6669.5428   -310717.19 
     480    544.98943    164194.97    72.432672    72.432673    36.137673          120    14574.646    15353.632   -41844.491    1497.0685   -260.82289   -943.11634    72.432672    62.728535    36.137673   -3972.0711   -310738.05 
     490    541.21679    164121.78    72.421909     72.42191    36.132304          120    14731.385    17322.838   -36393.522    807.45212   -313.28132   -227.04113    72.421909    62.719214    36.132304   -1446.4329   -310754.26 
     500    533.13368     164053.1    72.411805    72.411805    36.127262          120    15553.413    17909.225   -33252.025    371.36368   -393.41078    72.447264    72.411805    62.710463    36.127262    70.204184    -310762.4 
     510    530.96258    163989.11     72.40239     72.40239    36.122565          120    16601.017    17254.224   -31878.954    455.40908    856.14535    348.62368     72.40239    62.702309    36.122565    658.76241   -310781.24 
     520    526.86778    163929.64    72.393636    72.393637    36.118198          120    16121.773    16642.719   -33713.802    609.26931    920.71532    121.51094    72.393636    62.694729    36.118198   -316.43688   -310795.99 
     530    518.32814    163874.05    72.385452    72.385452    36.114114          120    16525.104    17091.785   -35678.864    548.72497    212.89626   -397.95914    72.385452    62.687641    36.114114   -687.32507    -310801.6 
     540    519.10025    163821.83    72.377763    72.377763    36.110278          120    17685.091    18393.201   -38486.633    508.35555   -803.92411    -594.5891    72.377763    62.680982    36.110278   -802.78029   -310824.47 
     550    513.38734     163772.7    72.370526    72.370527    36.106668          120    18506.236    19904.238   -39383.445    117.05014    -993.1886   -372.54238    72.370526    62.674715    36.106668   -324.32387   -310835.36 
     560    510.86363    163726.59    72.363734    72.363735    36.103279          120    18829.981    20756.876   -36433.477    380.96291   -718.41073   -114.77018    72.363734    62.668833    36.103279    1051.1268   -310851.88 
     570     503.9019    163683.75    72.357422    72.357423     36.10013          120    19474.228     20763.23   -33511.216    186.49911   -854.89436   -145.70796    72.357422    62.663367     36.10013    2242.0804   -310859.43 
     580     497.9286    163644.43    72.351627    72.351627    36.097239          120    20819.212    21688.159   -30946.514    731.25121    277.92309   -1107.2646    72.351627    62.658347    36.097239    3853.6188   -310867.81 
     590    493.81689    163608.92    72.346394    72.346394    36.094628          120    20429.393    23025.993   -28923.913    946.17291    410.12481   -1234.6402    72.346394    62.653816    36.094628    4843.8241   -310879.16 
     600    493.90304    163577.37    72.341743    72.341744    36.092308          120    20367.948    23774.965   -28152.361    234.43101    640.45133   -109.60766    72.341743    62.649788    36.092308    5330.1839   -310898.91 
     610    486.09469    163549.66    72.337658    72.337658    36.090269          120    20952.975     22879.25   -30236.505   -535.72703    560.71264    529.64222    72.337658     62.64625    36.090269    4531.9068   -310902.79 
     620    484.24772    163525.23    72.334056    72.334057    36.088472          120    20532.081    21699.112   -34083.888   -525.36106    689.86593  -0.10241212    72.334056    62.643131    36.088472    2715.7684   -310916.58 
     630    478.27707    163503.23    72.330812    72.330812    36.086854          120    20397.446     20761.19   -36640.358   -650.96746    620.22306    -391.2295    72.330812    62.640321    36.086854    1506.0928   -310923.38 
     640    471.47031    163483.05    72.327836    72.327837    36.085369          120    20227.979    21279.788   -37198.238    318.31657   -122.17122    6.6413741    72.327836    62.637744    36.085369    1436.5096   -310927.95 
     650    467.42636    163464.59    72.325114    72.325115    36.084011          120    21009.879    22313.485   -35291.475    427.50327   -587.38694    3.6533173    72.325114    62.635387    36.084011    2677.2964   -310937.83 
     660    468.03813    163448.18    72.322693    72.322693    36.082803          120    22490.304    23759.818   -32794.763    495.86956   -803.75521    389.23197    72.322693     62.63329    36.082803    4485.1197   -310955.94 
     670    466.15729    163434.35    72.320654    72.320654    36.081786          120     23967.89    24265.434   -29631.237    316.30894   -830.00231   -22.141458    72.320654    62.631524    36.081786    6200.6955   -310968.93 
     680    461.72804    163423.53    72.319058    72.319058    36.080989          120    23108.171    23366.348   -28969.546    109.73264   -710.28738    529.48369    72.319058    62.630142    36.080989    5834.9909   -310977.15 
     690     451.9527    163415.48     72.31787     72.31787    36.080397          120     21646.62     23280.56   -29968.583    854.64882     -337.678    1075.2133     72.31787    62.629113    36.080397     4986.199   -310973.29 
     700    450.58034    163409.75    72.317025    72.317026    36.079975          120    21051.666     23442.65    -31176.23    1332.4895   -392.09012     1663.738    72.317025    62.628381    36.079975    4439.3619   -310985.84 
     710    449.45577    163406.03    72.316476    72.316476    36.079701          120    21071.477    23891.617   -31256.294     1279.859   -153.98056     435.3174    72.316476    62.627906    36.079701    4568.9334   -310997.85 
     720    445.22413    163404.23     72.31621    72.316211    36.079569          120    21706.377    23857.086    -31692.29    1402.9137    376.84114    475.42209     72.31621    62.627676    36.079569    4623.7242   -311003.48 
     730    444.86389    163404.27    72.316216    72.316217    36.079572          120    21918.057    23930.118   -31885.635    779.70929     1191.541    405.95688    72.316216    62.627681    36.079572    4654.1801   -311017.12 
     740    442.33057     163406.1    72.316486    72.316487    36.079707          120    22176.853    23874.494   -30888.832     -444.516    593.03233    572.28023    72.316486    62.627915    36.079707    5054.1716   -311025.68 
     750    433.38834    163409.77    72.317027    72.317028    36.079976          120    23012.073    23753.319    -29942.59   -597.94384    370.82891    538.93196    72.317027    62.628383    36.079976    5607.6005   -311021.57 
     760    437.86522    163415.39    72.317857    72.317857     36.08039          120      23461.7    24076.897   -29498.997   -803.34666     362.6646    703.22248    72.317857    62.629102     36.08039       6013.2   -311043.89 
     770    429.45122    163423.04    72.318985    72.318986    36.080953          120    23091.084     23796.69   -29408.938   -1395.4512    70.470248    889.23181    72.318985    62.630079    36.080953    5826.2786   -311039.41 
     780    427.47976    163432.56    72.320389     72.32039    36.081654          120    22958.905    23177.794   -30047.681   -809.90556   -301.35698   -126.85412    72.320389    62.631295    36.081654    5363.0061   -311047.34 
     790    426.17636    163443.65    72.322026    72.322026     36.08247          120    21469.623    22566.057   -30983.951   -361.81187   -476.09315    841.31141    72.322026    62.632712     36.08247    4350.5761   -311056.94 
     800    424.29919     163455.9    72.323832    72.323833    36.083371          120    20711.259    21239.837   -32240.931   -129.37517    270.38749    640.42694    72.323832    62.634277    36.083371    3236.7217   -311064.87 
     810    418.91686    163468.87    72.325745    72.325745    36.084326          120    21582.484      20961.5   -32940.046    795.73387     480.2228    418.03923    72.325745    62.635933    36.084326    3201.3129   -311064.83 
     820     418.8074    163482.51    72.327757    72.327758     36.08533          120    22630.343    21860.659   -32992.577    578.15271   -700.72086     300.9171    72.327757    62.637676     36.08533    3832.8084   -311075.63 
     830    416.30962    163497.02    72.329896    72.329897    36.086397          120    22050.044     22420.49   -31870.263    490.81457   -716.27654    410.01832    72.329896    62.639528    36.086397    4200.0903   -311081.05 
     840    412.63291    163512.48    72.332176    72.332176    36.087534          120    21643.962    22224.051    -31587.27    791.99116   -281.83425    472.75676    72.332176    62.641503    36.087534     4093.581   -311083.91 
     850    411.82498    163528.83    72.334586    72.334587    36.088737          120    20173.544    22026.283   -31406.339    1568.2295    358.49477   -252.77902    72.334586     62.64359    36.088737    3597.8293   -311091.98 
     860    411.60615    163545.84    72.337095    72.337096    36.089989          120    19886.085    21837.544    -32106.93    1630.2587   -185.29071    234.74784    72.337095    62.645763    36.089989    3205.5665   -311100.21 
     870    408.00442    163563.39    72.339682    72.339683    36.091279          120    20010.005    21868.233   -31541.561    969.17522   -301.86727    185.20489    72.339682    62.648003    36.091279     3445.559   -311102.33 
     880    402.35082    163581.49     72.34235     72.34235     36.09261          120    20049.066    21830.075   -32902.457    883.88155     142.4807    281.30603     72.34235    62.650313     36.09261    2992.2278   -311100.38 
     890    402.59237    163599.96    72.345073    72.345073    36.093969          120    19659.467    21053.819   -33564.068    7.3912331    963.44701   -391.80382    72.345073    62.652672    36.093969    2383.0725   -311108.19 
     900    404.89972    163618.58    72.347818    72.347819    36.095338          120     20040.52    20880.219   -34256.752    174.89871    716.40768   -963.39527    72.347818    62.655049    36.095338     2221.329   -311120.59 
     910    399.56788    163637.32    72.350579     72.35058    36.096716          120     20343.77    21869.693   -34074.055    99.832889    300.96909   -417.22099    72.350579     62.65744    36.096716     2713.136   -311117.69 
     920    397.53162    163656.29    72.353376    72.353376    36.098111          120    20311.562    20850.151   -33994.875   -146.93473   -21.104643    235.34814    72.353376    62.659862    36.098111    2388.9459   -311120.23 
     930     395.7924    163675.43    72.356195    72.356196    36.099518          120    20417.671     19746.81   -33839.538    160.17569   -718.47681    284.86704    72.356195    62.662304    36.099518    2108.3143   -311123.48 
     940    398.22902     163694.6     72.35902     72.35902    36.100927          120    20085.363    19729.356    -34063.08    377.97148   -411.22251    128.90518     72.35902     62.66475    36.100927    1917.2132    -311134.3 
     950    395.26881    163713.76    72.361843    72.361843    36.102336          120    20414.137    20671.539    -33980.13    990.38855   -340.02251   -197.52328    72.361843    62.667195    36.102336    2368.5152   -311134.59 
     960    391.10693    163733.04    72.364684    72.364684    36.103753          120    19423.745    20801.699   -33236.638    596.32142     157.5807   -259.77471    72.364684    62.669655    36.103753     2329.602   -311131.39 
     970     390.6936    163752.44    72.367541    72.367542    36.105179          120     19217.16    20572.868    -33690.54    838.10821    922.12636   -131.61582    72.367541     62.67213    36.105179    2033.1629   -311135.45 
     980    390.11921    163771.87    72.370403    72.370404    36.106607          120    19170.208    20967.081   -33457.946    1470.8983    1170.7979   -341.36955    72.370403    62.674608    36.106607    2226.4478   -311138.59 
     990    391.47623    163791.36    72.373274    72.373275    36.108039          120    19070.759     20839.53   -34363.561    991.45134    439.23909   -643.76686    72.373274    62.677095    36.108039     1848.909   -311144.76 
    1000    389.86735    163810.83    72.376142    72.376142     36.10947          120    19428.989      21030.6   -34308.435    697.87385    279.62956   -634.76754    72.376142    62.679578     36.10947    2050.3848    -311145.2 
Loop time of 396.003 on 1 procs for 1000 steps with 14848 atoms

Performance: 0.218 ns/day, 110.001 hours/ns, 2.525 timesteps/s
100.0% CPU use with 1 MPI tasks x no OpenMP threads

MPI task timing breakdown:
Section |  min time  |  avg time  |  max time  |%varavg| %total
---------------------------------------------------------------
Pair    | 310.76     | 310.76     | 310.76     |   0.0 | 78.47
Bond    | 0.00057125 | 0.00057125 | 0.00057125 |   0.0 |  0.00
Kspace  | 14.641     | 14.641     | 14.641     |   0.0 |  3.70
Neigh   | 61.483     | 61.483     | 61.483     |   0.0 | 15.53
Comm    | 0.56458    | 0.56458    | 0.56458    |   0.0 |  0.14
Output  | 0.013726   | 0.013726   | 0.013726   |   0.0 |  0.00
Modify  | 8.3588     | 8.3588     | 8.3588     |   0.0 |  2.11
Other   |            | 0.1819     |            |       |  0.05

Nlocal:    14848 ave 14848 max 14848 min
Histogram: 1 0 0 0 0 0 0 0 0 0
Nghost:    46843 ave 46843 max 46843 min
Histogram: 1 0 0 0 0 0 0 0 0 0
Neighs:    1.00461e+07 ave 1.00461e+07 max 1.00461e+07 min
Histogram: 1 0 0 0 0 0 0 0 0 0

Total # of neighbors = 10046099
Ave neighs/atom = 676.596
Ave special neighs/atom = 0
Neighbor list builds = 182
Dangerous builds = 0
PPPM initialization ...
  using 12-bit tables for long-range coulomb (../kspace.cpp:321)
  G vector (1/distance) = 0.202547
  grid = 36 50 24
  stencil order = 5
  estimated absolute RMS force accuracy = 0.00100126
  estimated relative force accuracy = 6.9534e-05
  using double precision FFTs
  3d grid and FFT values/proc = 65395 43200
Setting up Verlet run ...
  Unit style    : metal
  Current step  : 0
  Time step     : 0.001
Per MPI rank memory allocation (min/avg/max) = 151.5 | 151.5 | 151.5 Mbytes
Step Temp Volume Cella Cellb Cellc CellGamma Pxx Pyy Pzz Pxy Pxz Pyz Lx Ly Lz Press PotEng 
       0    389.86735    163810.83    72.376142    72.376142     36.10947          120     19440.05    21042.005   -34303.024    698.48254    279.58783    -634.7327    72.376142    62.679578     36.10947    2059.6773   -311145.04 
  100000    399.75407    164917.18    72.538716    72.538716     36.19058          120    19465.224    19869.104   -36155.582    468.25766   -1585.1108   -862.37235    72.538716    62.820371     36.19058    1059.5821   -311228.73 
Loop time of 38147.9 on 1 procs for 100000 steps with 14848 atoms

Performance: 0.226 ns/day, 105.966 hours/ns, 2.621 timesteps/s
100.0% CPU use with 1 MPI tasks x no OpenMP threads

MPI task timing breakdown:
Section |  min time  |  avg time  |  max time  |%varavg| %total
---------------------------------------------------------------
Pair    | 30588      | 30588      | 30588      |   0.0 | 80.18
Bond    | 0.056945   | 0.056945   | 0.056945   |   0.0 |  0.00
Kspace  | 1474.7     | 1474.7     | 1474.7     |   0.0 |  3.87
Neigh   | 5171.5     | 5171.5     | 5171.5     |   0.0 | 13.56
Comm    | 53.341     | 53.341     | 53.341     |   0.0 |  0.14
Output  | 0.00012803 | 0.00012803 | 0.00012803 |   0.0 |  0.00
Modify  | 842.63     | 842.63     | 842.63     |   0.0 |  2.21
Other   |            | 18.09      |            |       |  0.05

Nlocal:    14848 ave 14848 max 14848 min
Histogram: 1 0 0 0 0 0 0 0 0 0
Nghost:    46656 ave 46656 max 46656 min
Histogram: 1 0 0 0 0 0 0 0 0 0
Neighs:    9.97727e+06 ave 9.97727e+06 max 9.97727e+06 min
Histogram: 1 0 0 0 0 0 0 0 0 0

Total # of neighbors = 9977266
Ave neighs/atom = 671.96
Ave special neighs/atom = 0
Neighbor list builds = 15244
Dangerous builds = 0
 
All done!
Total wall time: 10:42:25
