LAMMPS (16 Mar 2018)
Reading data file ...
  triclinic box = (0 0 0) to (9.208 7.97436 18.376) with tilt (-4.604 0 0)
  1 by 1 by 1 MPI processor grid
  reading atoms ...
  116 atoms
Finding 1-2 1-3 1-4 neighbors ...
  special bond factors lj:   0          0          0         
  special bond factors coul: 0          0          0         
  0 = max # of 1-2 neighbors
  0 = max # of 1-3 neighbors
  0 = max # of 1-4 neighbors
  1 = max # of special neighbors
Replicating atoms ...
  triclinic box = (0 0 0) to (73.664 63.7949 36.752) with tilt (-36.832 0 0)
  1 by 1 by 1 MPI processor grid
  14848 atoms
Finding 1-2 1-3 1-4 neighbors ...
  special bond factors lj:   0          0          0         
  special bond factors coul: 0          0          0         
  0 = max # of 1-2 neighbors
  0 = max # of 1-3 neighbors
  0 = max # of 1-4 neighbors
  1 = max # of special neighbors
  Time spent = 0.00491095 secs
PPPM initialization ...
WARNING: System is not charge neutral, net charge = -0.2048 (../kspace.cpp:302)
  using 12-bit tables for long-range coulomb (../kspace.cpp:321)
  G vector (1/distance) = 0.201681
  grid = 36 50 24
  stencil order = 5
  estimated absolute RMS force accuracy = 0.00105653
  estimated relative force accuracy = 7.33721e-05
  using double precision FFTs
  3d grid and FFT values/proc = 65395 43200
Neighbor list info ...
  update every 1 steps, delay 0 steps, check yes
  max neighbors/atom: 2000, page size: 100000
  master list distance cutoff = 15.3
  ghost atom cutoff = 15.3
  binsize = 7.65, bins = 15 9 5
  3 neighbor lists, perpetual/occasional/extra = 3 0 0
  (1) pair morse, perpetual
      attributes: half, newton on
      pair build: half/bin/newton/tri
      stencil: half/bin/3d/newton/tri
      bin: standard
  (2) pair buck, perpetual, copy from (1)
      attributes: half, newton on
      pair build: copy
      stencil: none
      bin: none
  (3) pair lj/cut/coul/long, perpetual, copy from (1)
      attributes: half, newton on
      pair build: copy
      stencil: none
      bin: none
Setting up Verlet run ...
  Unit style    : metal
  Current step  : 0
  Time step     : 0.001
Per MPI rank memory allocation (min/avg/max) = 145.7 | 145.7 | 145.7 Mbytes
Step Temp Volume Cella Cellb Cellc CellGamma Pxx Pyy Pzz Pxy Pxz Pyz Lx Ly Lz Press PotEng 
       0          600    172711.88       73.664    73.664001       36.752          120   -197148.32   -197252.81   -268776.74    48.543136   -15.257356    20.406001       73.664    63.794896       36.752   -221059.29   -308813.33 
      10    502.50797       172680    73.659467    73.659468    36.749739          120   -195263.14    -195366.4   -241259.09    143.20651   -28.619417   -242.12762    73.659467    63.790971    36.749739   -210629.54   -308645.13 
      20    791.99522    172587.19    73.646268    73.646269    36.743153          120   -187219.95   -187078.83   -178921.83    60.055368   -249.96597   -532.31335    73.646268     63.77954    36.743153   -184406.87   -309217.05 
      30    841.35703    172441.73    73.625573    73.625573    36.732828          120   -150282.51   -150215.87    -99087.69   -163.45562   -839.80903   -538.70489    73.625573    63.761617    36.732828   -133195.36    -309334.9 
      40    616.28446    172258.99    73.599556    73.599556    36.719848          120    -101922.8   -102474.83   -20961.328   -1057.8664   -1136.0827   -522.24437    73.599556    63.739086    36.719848   -75119.652   -308917.24 
      50    724.24079    172056.06    73.570643    73.570644    36.705423          120   -70555.177   -71585.349   -1975.6002   -487.11203   -897.89746   -624.43407    73.570643    63.714047    36.705423   -48038.709   -309128.44 
      60    978.60381    171842.31    73.540164    73.540165    36.690217          120   -58713.424   -58303.929   -48569.932   -1065.6326   -1814.6336    -614.8373    73.540164    63.687651    36.690217   -55195.761    -309625.8 
      70    1109.8683    171618.31    73.508196    73.508197    36.674267          120   -51498.296   -51971.835   -113107.33   -1923.2058   -2407.7084   -819.54099    73.508196    63.659966    36.674267   -72192.488   -309908.94 
      80    979.84145    171381.76    73.474408    73.474409     36.65741          120    -48520.33   -50500.788   -157263.81    -1938.954   -2366.3509   -86.738953    73.474408    63.630705     36.65741   -85428.308   -309696.42 
      90    749.04616    171131.84    73.438676    73.438676    36.639583          120   -46053.868    -46405.61   -168542.16   -1884.8778    -2870.282   -1281.1272    73.438676     63.59976    36.639583   -87000.546   -309284.22 
     100    778.67297    170871.61    73.401432    73.401432    36.621001          120   -30390.478   -30227.719   -147268.02   -1733.0807    -2563.125   -1517.6356    73.401432    63.567505    36.621001   -69295.405   -309368.39 
     110     935.6937     170609.1    73.363824    73.363824    36.602238          120   -11229.649   -11572.921   -107862.21   -1709.9205   -926.14327   -1883.3284    73.363824    63.534936    36.602238   -43554.927   -309701.42 
     120    953.48738    170354.04    73.327246    73.327247    36.583989          120   -560.09731   -733.26052   -61892.456   -1612.6979   -539.60073   -1550.1554    73.327246    63.503258    36.583989   -21061.938   -309770.27 
     130    863.05361    170114.18    73.292814    73.292815     36.56681          120    -401.2281    554.03987   -25281.838   -1309.5479   -1034.2984   -1834.1446    73.292814     63.47344     36.56681    -8376.342   -309628.09 
     140    821.10844    169893.33    73.261084    73.261085     36.55098          120    -4467.014   -4533.4529   -11391.508    -733.9118   -868.34597   -1977.6356    73.261084     63.44596     36.55098    -6797.325    -309572.8 
     150    859.23556    169691.19    73.232017    73.232017    36.536478          120   -11449.101   -10354.689     -30049.1     -1977.17   -456.59053   -1519.7307    73.232017    63.420788    36.536478   -17284.297   -309673.04 
     160     918.6206    169503.83    73.205054    73.205054    36.523025          120   -19297.541   -18839.334    -62464.42   -1693.3264   -1326.3695   -2269.3132    73.205054    63.397437    36.523025   -33533.765   -309820.08 
     170    918.95625    169325.86    73.179424    73.179425    36.510238          120   -23732.701   -22849.474   -91210.715   -1309.9806   -1964.4009   -2191.5232    73.179424    63.375241    36.510238   -45930.963    -309857.8 
     180    847.51976    169153.05    73.154521    73.154521    36.497814          120   -21476.341   -20342.935   -109474.69   -1272.5753   -2365.5874   -2237.0228    73.154521    63.353674    36.497814   -50431.324   -309756.63 
     190    820.41585    168983.36    73.130051    73.130052    36.485606          120   -17777.796   -16319.579   -110691.81   -706.62902   -2690.2929   -2043.2236    73.130051    63.332483    36.485606   -48263.063   -309737.72 
     200    850.65027    168816.68    73.105998    73.105999    36.473605          120   -13299.833   -13644.013   -94540.671    -1454.459   -2023.1858   -1802.7551    73.105998    63.311652    36.473605   -40494.839   -309828.09 
     210    874.38392    168654.19    73.082535    73.082536    36.461899          120   -9491.7661   -9851.5832   -72709.959   -1804.1402   -1930.9036   -1377.9051    73.082535    63.291333    36.461899   -30684.436    -309906.7 
     220    854.60067    168497.48    73.059892    73.059893    36.450602          120   -7087.9956   -5566.8841   -54726.426   -1875.7224   -1518.4317   -2730.3836    73.059892    63.271724    36.450602   -22460.435   -309901.71 
     230    836.28183    168347.51    73.038212    73.038212    36.439785          120   -6869.4932   -6257.6105   -46036.778   -1286.0215   -478.19772   -3341.1223    73.038212    63.252947    36.439785   -19721.294      -309896 
     240    833.92498    168203.92    73.017439     73.01744    36.429422          120   -9074.6845   -7686.0531   -46699.219   -885.16946    -1669.283    -4000.149    73.017439    63.234958    36.429422   -21153.319   -309922.35 
     250     847.9955     168065.2    72.997361    72.997361    36.419404          120   -12226.603   -11036.125   -57419.564   -632.04214   -2306.8441   -4111.7025    72.997361    63.217569    36.419404   -26894.097   -309981.03 
     260    855.89281    167929.09    72.977649     72.97765     36.40957          120   -13591.844   -13685.441   -69983.986   -936.49703   -2725.2253   -4084.3889    72.977649    63.200499     36.40957   -32420.424   -310029.65 
     270    834.65392    167793.53    72.958007    72.958008     36.39977          120   -13114.293   -14276.593   -80350.524   -6.6162545   -2243.5258   -3590.5867    72.958007    63.183488     36.39977   -35913.803   -310023.24 
     280    813.41931    167657.18     72.93824    72.938241    36.389908          120   -12719.884   -13329.935   -84360.897   -308.77293   -1726.2493   -2559.4172     72.93824     63.16637    36.389908   -36803.572   -310014.57 
     290    810.47122    167519.62    72.918287    72.918287    36.379953          120   -9337.2027   -9267.5705   -78640.955   -105.19754   -1726.1268   -2728.4669    72.918287    63.149089    36.379953   -32415.243   -310039.75 
     300    818.02481    167381.74    72.898276    72.898276     36.36997          120   -5645.8523   -5284.8881   -67985.781    107.72266   -1726.1544   -2840.7701    72.898276    63.131759     36.36997   -26305.507   -310085.09 
     310     809.8307       167245    72.878419     72.87842    36.360063          120   -2460.0546   -2802.2283   -55804.711   -379.25932   -953.02837   -1620.3568    72.878419    63.114563    36.360063   -20355.665   -310099.58 
     320    801.07555    167110.71    72.858908    72.858909    36.350328          120   -1055.9833   -2257.0706   -46599.676    84.176391   -521.72726    -1469.677    72.858908    63.097666    36.350328   -16637.577   -310112.44 
     330    790.44542    166979.62    72.839851    72.839852    36.340821          120   -681.79652   -2113.0884   -43460.837    23.813023   -1042.7445   -2592.4636    72.839851    63.081162    36.340821   -15418.574   -310120.14 
     340    789.02513    166851.77    72.821257    72.821257    36.331544          120   -2653.5226   -2132.8046   -46883.617    381.38814   -760.07739   -2774.0399    72.821257    63.065059    36.331544   -17223.315   -310146.49 
     350    795.11783    166726.48    72.803024    72.803025    36.322447          120   -4320.4306   -2793.6116   -57445.065    498.84062   -1280.4491   -2566.4289    72.803024    63.049269    36.322447   -21519.702    -310186.8 
     360    786.60381     166602.5    72.784974    72.784975    36.313442          120   -5483.1468   -3530.3288   -67380.879    198.32573   -1403.7506   -2525.2404    72.784974    63.033637    36.313442   -25464.785   -310198.92 
     370    768.99631    166478.82    72.766959    72.766959    36.304454          120   -4097.6561   -2163.7928   -69534.446   -369.41329   -2796.5916    -2918.247    72.766959    63.018035    36.304454   -25265.298   -310193.76 
     380    771.30266    166355.45    72.748979     72.74898    36.295483          120   -1574.2165    359.74662   -65696.116   -584.14574   -3760.6913   -3023.9621    72.748979    63.002465    36.295483   -22303.529   -310226.26 
     390    764.91273    166233.16     72.73115     72.73115    36.286588          120    2080.5973    3412.8514   -58213.106     -1124.04   -2739.6677   -2276.5251     72.73115    62.987024    36.286588   -17573.219   -310241.33 
     400    758.52407    166113.16    72.713643    72.713644    36.277854          120    5311.5431    5391.7677   -48788.542   -889.60912    -1290.385   -1906.0832    72.713643    62.971863    36.277854   -12695.077   -310255.19 
     410    755.99366     165996.6    72.696632    72.696633    36.269367          120    7017.4939    6772.3715   -41249.439    118.53802   -389.45131   -776.04239    72.696632    62.957131    36.269367   -9153.1912   -310275.88 
     420    752.90841    165884.24    72.680226    72.680227    36.261181          120    6608.2316    7819.3892   -38339.369    674.60609    -286.7195    -1728.674    72.680226    62.942923    36.261181   -7970.5827    -310295.5 
     430    743.79555    165776.16    72.664438    72.664439    36.253305          120    6078.4225    6850.3931   -41026.799   -288.03877   -659.07332   -2737.9109    72.664438     62.92925    36.253305   -9365.9944   -310303.36 
     440     747.4051    165671.77    72.649183    72.649184    36.245694          120    4535.6535     4838.125   -48229.102   -18.288135   -1058.2513   -1364.3328    72.649183    62.916039    36.245694   -12951.774    -310334.9 
     450    739.52704    165570.06    72.634312    72.634312    36.238274          120    3592.5812    3645.8364   -53085.494   -226.49041   -631.80177    -912.3436    72.634312     62.90316    36.238274   -15282.359   -310344.55 
     460    729.61289     165470.3    72.619721    72.619722    36.230995          120    6122.3099     5731.205   -56146.283    981.16275    -773.7884    -1788.532    72.619721    62.890524    36.230995   -14764.256   -310349.82 
     470    722.27267    165372.49     72.60541     72.60541    36.223854          120    9296.0022    7986.7405   -54003.548     1364.325    -1306.017   -1745.3225     72.60541     62.87813    36.223854   -12240.268   -310359.37 
     480    722.35254    165277.16    72.591456    72.591456    36.216893          120    11512.656    11169.242   -50087.074    1326.5233   -1310.5724   -1658.2876    72.591456    62.866046    36.216893   -9135.0584   -310382.84 
     490    713.46095    165184.96    72.577955    72.577955    36.210157          120    11396.951    13172.337   -43722.181    1301.7283   -396.20322   -142.66178    72.577955    62.854353    36.210157   -6384.2975   -310388.95 
     500    706.06965    165096.41    72.564983    72.564984    36.203685          120    11891.163     13924.74   -38531.386    552.91705    1043.4956   -317.21351    72.564983     62.84312    36.203685   -4238.4946   -310395.96 
     510    702.39898     165011.8    72.552586    72.552587      36.1975          120    11427.242    13873.927   -38317.075    208.88863    852.57947    85.813387    72.552586    62.832384      36.1975   -4338.6353   -310409.52 
     520    698.44574    164930.92     72.54073    72.540731    36.191585          120    11258.234    13169.156   -39397.588      1380.59    1010.6098    799.42321     72.54073    62.822116    36.191585   -4990.0661   -310422.75 
     530    702.26676    164853.35    72.529356    72.529356     36.18591          120     11317.88     14303.48   -42114.576    1799.8062    1069.6146    595.71209    72.529356    62.812265     36.18591   -5497.7387   -310451.02 
     540    691.20253    164778.78    72.518418    72.518419    36.180453          120    13992.423    14853.216   -44062.633    1574.4112    101.47517    1339.7167    72.518418    62.802793    36.180453   -5072.3312   -310450.51 
     550    689.76162     164707.1    72.507902    72.507902    36.175206          120    14788.272    16188.992   -44294.623    1261.2251   -118.57109   -76.549673    72.507902    62.793686    36.175206   -4439.1198   -310467.66 
     560    684.07375    164638.36    72.497813    72.497814    36.170173          120    16158.713    18420.314   -40737.645    869.12623   -219.39228   -455.53996    72.497813    62.784948    36.170173    -2052.873   -310476.73 
     570    684.27402    164572.87    72.488199      72.4882    36.165377          120    16308.293    19083.045    -38663.14    518.44906     303.2334    400.39256    72.488199    62.776623    36.165377   -1090.6006    -310495.9 
     580    672.43607    164510.75    72.479077    72.479077    36.160825          120     17810.62    19412.587   -36171.178    739.01877    -550.7463   -290.66172    72.479077    62.768722    36.160825    350.67638   -310491.66 
     590    673.81663    164452.08     72.47046    72.470461    36.156526          120    17774.839     18664.61   -33948.142   -168.60096   -286.59958   -88.820483     72.47046     62.76126    36.156526    830.43598   -310512.41 
     600    665.42416     164396.8    72.462339     72.46234    36.152475          120    18180.399    19227.928   -33763.132    1173.4491    366.91587   -893.61617    72.462339    62.754227    36.152475    1215.0651   -310514.05 
     610    667.99418    164344.76    72.454691    72.454692    36.148659          120    18664.652     18331.04   -35007.983     2291.805    1152.4855   -166.17046    72.454691    62.747604    36.148659    662.56941   -310535.89 
     620    663.48193    164295.62     72.44747     72.44747    36.145056          120    18145.517    18873.475   -38118.485    1040.5826    609.72005   -430.29445     72.44747     62.74135    36.145056    -366.4977   -310544.39 
     630    661.74445    164248.96    72.440611    72.440612    36.141634          120    18539.767    18225.753   -39126.664    266.79703   -551.50178   -874.70562    72.440611     62.73541    36.141634   -787.04801   -310558.11 
     640    655.16595     164204.5    72.434075    72.434075    36.138373          120    18929.968    17965.531   -39195.711    297.05016   -128.78321   -2065.2785    72.434075    62.729749    36.138373   -766.73725   -310562.58 
     650    647.40781    164162.14    72.427845    72.427846    36.135265          120     20354.01    19370.644   -37994.317     1003.024    392.89208    -1294.576    72.427845    62.724354    36.135265    576.77874   -310563.79 
     660    648.25582    164122.05    72.421949    72.421949    36.132323          120     20976.89    20601.288   -35155.456      872.886     285.7291   -1722.4433    72.421949    62.719248    36.132323    2140.9072   -310581.43 
     670    643.13483    164084.51    72.416426    72.416427    36.129568          120    20948.836     21714.02   -31138.719    1589.6462    49.064298   -1589.9198    72.416426    62.714465    36.129568    3841.3793    -310586.4 
     680    638.52027    164049.73     72.41131     72.41131    36.127015          120    18928.275    21636.231   -30249.651    2462.3515    255.33476   -731.67807     72.41131    62.710034    36.127015     3438.285   -310592.06 
     690    637.36544    164017.53    72.406571    72.406571    36.124651          120    18079.516    21705.907    -30829.67    2170.9388    757.40656    536.59163    72.406571     62.70593    36.124651    2985.2509   -310604.49 
     700    633.08833    163987.64    72.402172    72.402173    36.122457          120     19023.65    21758.518   -31054.359    1343.0276    446.93409    1253.0094    72.402172    62.702121    36.122457    3242.6032   -310609.78 
     710    634.38776    163959.95    72.398098    72.398098    36.120424          120    19325.562    21371.405    -32580.59    302.40317   -132.92039    243.10199    72.398098    62.698593    36.120424    2705.4589   -310626.19 
     720    629.74888    163934.26    72.394316    72.394316    36.118537          120    18979.229    21023.309   -33801.681    163.86646    8.1850683    429.78222    72.394316    62.695317    36.118537    2066.9524   -310630.04 
     730     625.4449    163910.26    72.390784    72.390784    36.116774          120    18164.058    20816.538   -34510.747    852.71493    798.17497   -727.51694    72.390784    62.692258    36.116774    1489.9497   -310635.34 
     740    622.42227    163887.75    72.387469     72.38747    36.115121          120    19094.706    20954.101   -35020.593    558.06179     1526.633   -1296.1097    72.387469    62.689388    36.115121     1676.071    -310642.1 
     750    616.11179    163866.67    72.384365    72.384366    36.113572          120    20102.962    21044.166   -35825.728    849.12894    710.31955   -902.26382    72.384365      62.6867    36.113572    1773.7999   -310641.83 
     760    617.57859    163847.01     72.38147     72.38147    36.112128          120    20452.187    21883.548   -33469.551    853.43911    102.40065   -1600.9278     72.38147    62.684192    36.112128    2955.3944   -310655.99 
     770    616.45272    163828.93    72.378809    72.378809      36.1108          120    20838.149     22072.36   -32241.842    747.92697    830.77529   -1097.1589    72.378809    62.681888      36.1108    3556.2224   -310664.45 
     780    616.72568    163812.55    72.376396    72.376396    36.109596          120    20037.656    22912.624   -30562.904    295.82787    687.63973   -690.32119    72.376396    62.679798    36.109596    4129.1252    -310675.6 
     790    610.21922    163797.92    72.374242    72.374242    36.108522          120      22098.8    23245.772   -30589.408    907.52102   -149.20594     -163.145    72.374242    62.677933    36.108522    4918.3879   -310673.56 
     800    609.93971    163785.15    72.372361    72.372361    36.107583          120    23067.145     22723.72   -30826.495    517.35696    92.697172   -388.73332    72.372361    62.676303    36.107583    4988.1232   -310683.03 
     810    608.86512    163774.16    72.370742    72.370742    36.106775          120    22147.183    22551.316   -31718.953   -6.7976185   -674.92152    647.65715    72.370742    62.674902    36.106775    4326.5152   -310690.31 
     820    606.61735    163764.75    72.369355    72.369356    36.106084          120    23261.081    22158.397   -32810.793   -21.625643    -265.2346    220.41083    72.369355    62.673701    36.106084    4202.8951   -310696.01 
     830     605.3023     163756.8    72.368185    72.368185      36.1055          120     23641.06    22288.416   -33239.415    420.97449    -441.2608   -682.48265    72.368185    62.672687      36.1055    4230.0202   -310702.98 
     840    597.73616    163750.28    72.367224    72.367225     36.10502          120     22515.85    23535.405   -31612.101     665.6001   -51.024676   -1022.2925    72.367224    62.671855     36.10502    4813.0513   -310696.89 
     850    599.13104    163745.26    72.366483    72.366484    36.104651          120    22453.234    25315.619    -29679.89    1001.2188   -127.03752   -1179.7824    72.366483    62.671214    36.104651    6029.6543   -310707.34 
     860    596.24126    163741.98       72.366    72.366001     36.10441          120    23901.422    26978.456   -28115.281    204.69564    704.36719   -656.99851       72.366    62.670795     36.10441    7588.1987   -310709.18 
     870    598.79222    163740.73    72.365817    72.365818    36.104318          120    24154.325    25590.431   -27688.135   -116.04676    -8.792371   -1308.6323    72.365817    62.670637    36.104318    7352.2069   -310721.43 
     880    593.77934    163741.43     72.36592     72.36592     36.10437          120    23829.633    24469.174   -28092.935    115.30524   -14.703138   -917.84141     72.36592    62.670725     36.10437    6735.2902   -310719.17 
     890    600.12388    163743.81     72.36627    72.366271    36.104545          120    22360.343    23884.598   -29246.961     375.3207    152.02859   -378.69225     72.36627    62.671029    36.104545    5665.9933   -310737.08 
     900    581.21789    163747.57    72.366825    72.366825    36.104821          120    22514.121    23680.428   -30165.766    -294.9108   -993.70608   -123.97403    72.366825    62.671509    36.104821    5342.9278   -310707.17 
     910     593.4216    163752.54    72.367557    72.367558    36.105186          120    21521.928    24232.632   -31785.776    914.62129    -882.0784   -71.229475    72.367557    62.672143    36.105186    4656.2612   -310735.96 
     920    591.13591    163758.52    72.368438    72.368438    36.105626          120    20253.805    23953.989   -32557.826    1138.0242    -1510.154    260.64491    72.368438    62.672906    36.105626    3883.3227   -310736.61 
     930    585.86799     163765.3    72.369437    72.369437    36.106124          120    20258.255    23997.999   -32285.055    522.09369    -751.8349    702.96764    72.369437    62.673771    36.106124    3990.3998   -310731.07 
     940    587.67751    163772.87    72.370551    72.370551     36.10668          120    20019.573    23811.957   -30807.504    329.50848   -115.69487   -422.57129    72.370551    62.674736     36.10668    4341.3421    -310738.2 
     950    589.59435    163781.27    72.371789    72.371789    36.107298          120    21583.231     23022.53   -30641.107    257.18863    638.88619   -182.69102    72.371789    62.675808    36.107298    4654.8846   -310745.39 
     960      582.949    163790.58    72.373159     72.37316    36.107982          120    22256.337    22130.384   -30294.902    175.33035   -323.32865    1385.0847    72.373159    62.676995    36.107982    4697.2731   -310736.59 
     970    587.58435    163800.75    72.374658    72.374659    36.108729          120    22753.955    21439.652   -31140.921    816.85861   -1156.0687    661.95779    72.374658    62.678293    36.108729    4350.8954   -310747.44 
     980    588.98919    163811.68    72.376268    72.376269    36.109532          120    23041.706    20951.636   -31904.619    1137.0701    181.51783   -316.54379    72.376268    62.679687    36.109532    4029.5744   -310751.82 
     990    583.28185     163823.3    72.377979    72.377979    36.110386          120    22514.973    21866.105   -31077.564    744.49556    897.66858    -944.3405    72.377979    62.681169    36.110386    4434.5048    -310742.6 
    1000    589.06461    163835.65    72.379797    72.379798    36.111293          120    22614.319    22806.875   -30606.697    1110.2512    9.2254379   -470.90516    72.379797    62.682744    36.111293    4938.1656   -310754.28 
Loop time of 403.888 on 1 procs for 1000 steps with 14848 atoms

Performance: 0.214 ns/day, 112.191 hours/ns, 2.476 timesteps/s
100.0% CPU use with 1 MPI tasks x no OpenMP threads

MPI task timing breakdown:
Section |  min time  |  avg time  |  max time  |%varavg| %total
---------------------------------------------------------------
Pair    | 311.62     | 311.62     | 311.62     |   0.0 | 77.16
Bond    | 0.00060105 | 0.00060105 | 0.00060105 |   0.0 |  0.00
Kspace  | 14.575     | 14.575     | 14.575     |   0.0 |  3.61
Neigh   | 68.554     | 68.554     | 68.554     |   0.0 | 16.97
Comm    | 0.5796     | 0.5796     | 0.5796     |   0.0 |  0.14
Output  | 0.013709   | 0.013709   | 0.013709   |   0.0 |  0.00
Modify  | 8.3632     | 8.3632     | 8.3632     |   0.0 |  2.07
Other   |            | 0.1807     |            |       |  0.04

Nlocal:    14848 ave 14848 max 14848 min
Histogram: 1 0 0 0 0 0 0 0 0 0
Nghost:    46797 ave 46797 max 46797 min
Histogram: 1 0 0 0 0 0 0 0 0 0
Neighs:    1.00437e+07 ave 1.00437e+07 max 1.00437e+07 min
Histogram: 1 0 0 0 0 0 0 0 0 0

Total # of neighbors = 10043743
Ave neighs/atom = 676.437
Ave special neighs/atom = 0
Neighbor list builds = 203
Dangerous builds = 0
PPPM initialization ...
  using 12-bit tables for long-range coulomb (../kspace.cpp:321)
  G vector (1/distance) = 0.202544
  grid = 36 50 24
  stencil order = 5
  estimated absolute RMS force accuracy = 0.00100142
  estimated relative force accuracy = 6.95446e-05
  using double precision FFTs
  3d grid and FFT values/proc = 65395 43200
Setting up Verlet run ...
  Unit style    : metal
  Current step  : 0
  Time step     : 0.001
Per MPI rank memory allocation (min/avg/max) = 151.5 | 151.5 | 151.5 Mbytes
Step Temp Volume Cella Cellb Cellc CellGamma Pxx Pyy Pzz Pxy Pxz Pyz Lx Ly Lz Press PotEng 
       0    589.06461    163835.65    72.379797    72.379798    36.111293          120    22625.413    22818.457   -30601.311    1110.7533    9.3023742   -470.96489    72.379797    62.682744    36.111293    4947.5198   -310754.13 
  100000    596.28869     165795.3    72.667234    72.667235      36.2547          120    17534.403    20114.236   -38029.199    -1096.338    -543.3629   -1124.1872    72.667234    62.931672      36.2547   -126.85314   -310877.81 
Loop time of 39127.8 on 1 procs for 100000 steps with 14848 atoms

Performance: 0.221 ns/day, 108.688 hours/ns, 2.556 timesteps/s
100.0% CPU use with 1 MPI tasks x no OpenMP threads

MPI task timing breakdown:
Section |  min time  |  avg time  |  max time  |%varavg| %total
---------------------------------------------------------------
Pair    | 30440      | 30440      | 30440      |   0.0 | 77.80
Bond    | 0.057524   | 0.057524   | 0.057524   |   0.0 |  0.00
Kspace  | 1474       | 1474       | 1474       |   0.0 |  3.77
Neigh   | 6302.3     | 6302.3     | 6302.3     |   0.0 | 16.11
Comm    | 56.003     | 56.003     | 56.003     |   0.0 |  0.14
Output  | 0.00013208 | 0.00013208 | 0.00013208 |   0.0 |  0.00
Modify  | 837.62     | 837.62     | 837.62     |   0.0 |  2.14
Other   |            | 17.96      |            |       |  0.05

Nlocal:    14848 ave 14848 max 14848 min
Histogram: 1 0 0 0 0 0 0 0 0 0
Nghost:    46506 ave 46506 max 46506 min
Histogram: 1 0 0 0 0 0 0 0 0 0
Neighs:    9.92437e+06 ave 9.92437e+06 max 9.92437e+06 min
Histogram: 1 0 0 0 0 0 0 0 0 0

Total # of neighbors = 9924372
Ave neighs/atom = 668.398
Ave special neighs/atom = 0
Neighbor list builds = 18708
Dangerous builds = 0
 
All done!
Total wall time: 10:58:53
