LAMMPS (16 Mar 2018)
Reading data file ...
  triclinic box = (0 0 0) to (9.208 7.97436 18.376) with tilt (-4.604 0 0)
  1 by 1 by 1 MPI processor grid
  reading atoms ...
  116 atoms
Finding 1-2 1-3 1-4 neighbors ...
  special bond factors lj:   0          0          0         
  special bond factors coul: 0          0          0         
  0 = max # of 1-2 neighbors
  0 = max # of 1-3 neighbors
  0 = max # of 1-4 neighbors
  1 = max # of special neighbors
Replicating atoms ...
  triclinic box = (0 0 0) to (73.664 63.7949 36.752) with tilt (-36.832 0 0)
  1 by 1 by 1 MPI processor grid
  14848 atoms
Finding 1-2 1-3 1-4 neighbors ...
  special bond factors lj:   0          0          0         
  special bond factors coul: 0          0          0         
  0 = max # of 1-2 neighbors
  0 = max # of 1-3 neighbors
  0 = max # of 1-4 neighbors
  1 = max # of special neighbors
  Time spent = 0.00349307 secs
PPPM initialization ...
WARNING: System is not charge neutral, net charge = -0.2048 (../kspace.cpp:302)
  using 12-bit tables for long-range coulomb (../kspace.cpp:321)
  G vector (1/distance) = 0.201681
  grid = 36 50 24
  stencil order = 5
  estimated absolute RMS force accuracy = 0.00105653
  estimated relative force accuracy = 7.33721e-05
  using double precision FFTs
  3d grid and FFT values/proc = 65395 43200
Neighbor list info ...
  update every 1 steps, delay 0 steps, check yes
  max neighbors/atom: 2000, page size: 100000
  master list distance cutoff = 15.3
  ghost atom cutoff = 15.3
  binsize = 7.65, bins = 15 9 5
  3 neighbor lists, perpetual/occasional/extra = 3 0 0
  (1) pair morse, perpetual
      attributes: half, newton on
      pair build: half/bin/newton/tri
      stencil: half/bin/3d/newton/tri
      bin: standard
  (2) pair buck, perpetual, copy from (1)
      attributes: half, newton on
      pair build: copy
      stencil: none
      bin: none
  (3) pair lj/cut/coul/long, perpetual, copy from (1)
      attributes: half, newton on
      pair build: copy
      stencil: none
      bin: none
Setting up Verlet run ...
  Unit style    : metal
  Current step  : 0
  Time step     : 0.001
Per MPI rank memory allocation (min/avg/max) = 145.7 | 145.7 | 145.7 Mbytes
Step Temp Volume Cella Cellb Cellc CellGamma Pxx Pyy Pzz Pxy Pxz Pyz Lx Ly Lz Press PotEng 
       0          900    172711.88       73.664    73.664001       36.752          120   -193553.64   -193714.23   -265228.25     72.16473   -22.883856    30.609821       73.664    63.794896       36.752    -217498.7   -308813.33 
      10    641.77778    172691.07    73.661042    73.661042    36.750524          120   -187367.47   -187458.56   -232892.08    151.44255   -30.436786   -306.71308    73.661042    63.792334    36.750524    -202572.7   -308329.71 
      20    946.89115    172631.13    73.652519    73.652519    36.746272          120   -174341.71   -174507.98   -169009.13    120.08038   -179.89608   -629.54344    73.652519    63.784953    36.746272   -172619.61    -308923.1 
      30    1022.1124    172538.26    73.639307    73.639308    36.739681          120   -131558.86    -131755.3   -89338.895    -159.1509   -839.31613   -584.99151    73.639307    63.773512    36.739681   -117551.02   -309071.91 
      40    798.06678    172423.03    73.622911    73.622911      36.7315          120   -83675.749    -84455.89   -13568.721   -1401.5325   -1070.2039   -505.61693    73.622911    63.759312      36.7315   -60566.787   -308636.94 
      50    920.16293    172296.09    73.604839     73.60484    36.722484          120     -58964.6   -60146.126   -2990.3042   -363.69871   -562.56666   -675.22099    73.604839    63.743661    36.722484   -40700.343   -308862.47 
      60    1144.4089    172161.76    73.585706    73.585706    36.712938          120   -53102.342    -52544.32   -51988.397   -1343.8616   -1639.0452   -778.51123    73.585706    63.727091    36.712938    -52545.02   -309287.47 
      70    1258.4908    172018.72    73.565321    73.565322    36.702768          120   -49144.255   -50214.919   -115088.92   -1981.3566   -2266.9269   -816.39086    73.565321    63.709438    36.702768   -71482.697   -309519.01 
      80    1134.4909    171864.16    73.543281    73.543282    36.691772          120   -49017.993   -51361.903   -156914.37   -2053.3396   -2066.4694   -274.43738    73.543281     63.69035    36.691772   -85764.756    -309304.8 
      90    923.39973    171696.29    73.519328    73.519329    36.679821          120   -47743.608   -47646.517   -166237.28   -1681.4351   -2674.3752   -1914.8464    73.519328    63.669607    36.679821   -87209.134   -308917.41 
     100    962.57161    171516.09    73.493599    73.493599    36.666984          120   -32142.743   -31306.808   -145466.51   -1520.8029   -2347.1157   -1758.0422    73.493599    63.647324    36.666984   -69638.686   -309007.67 
     110    1105.1786    171327.96    73.466718    73.466719    36.653573          120   -14002.778   -13693.718   -108650.96   -1831.8236   -638.71111   -1987.1281    73.466718    63.624045    36.653573   -45449.151   -309298.43 
     120    1126.2469    171137.66    73.439507    73.439508    36.639997          120   -3854.1843   -3629.0471   -65567.524   -1608.1356   -92.090151   -1587.9078    73.439507     63.60048    36.639997   -24350.252   -309359.89 
     130    1052.8947    170950.26    73.412692    73.412693    36.626619          120   -3393.9202    -1869.001   -30955.723    -1197.183   -756.75908   -1701.3506    73.412692    63.577257    36.626619   -12072.881   -309240.91 
     140    1015.2344    170768.97    73.386731    73.386732    36.613667          120   -6875.9576   -6313.0332   -17858.337   -781.81384   -670.40846   -2704.8421    73.386731    63.554774    36.613667   -10349.109   -309185.83 
     150    1042.8636    170594.67    73.361756    73.361756    36.601206          120   -13787.642   -12707.187   -34408.122   -1856.6887   -634.87858   -1799.8571    73.361756    63.533145    36.601206   -20300.983      -309257 
     160     1101.753    170426.07    73.337579     73.33758    36.589144          120   -21198.596   -19754.723   -64546.394   -2073.5064   -1169.1235   -2928.0833    73.337579    63.512207    36.589144   -35166.571   -309392.25 
     170    1110.5233     170260.9     73.31388    73.313881     36.57732          120    -24503.74   -23859.956   -92457.779   -1476.1568   -1896.3287   -2995.7127     73.31388    63.491683     36.57732   -46940.492   -309435.18 
     180    1048.4658     170097.5     73.29042     73.29042    36.565616          120    -21662.83   -21287.038   -110592.62   -543.56835   -2001.6438   -2744.2593     73.29042    63.471366    36.565616   -51180.829   -309342.98 
     190    1022.1915    169935.48    73.267142    73.267143    36.554002          120   -19128.005   -16727.947   -112021.52   -784.82117   -3096.6397   -2266.6674    73.267142    63.451207    36.554002   -49292.489   -309317.63 
     200     1039.349    169775.59    73.244155    73.244156    36.542534          120   -14498.156   -14369.556   -96231.069   -1393.5128   -2159.2393   -1806.6594    73.244155      63.4313    36.542534   -41699.594   -309373.19 
     210     1073.241    169619.33    73.221678    73.221678    36.531319          120   -10883.377   -11926.443   -77099.872   -1463.2673   -1971.7304   -2206.0563    73.221678    63.411834    36.531319   -33303.231   -309461.73 
     220    1060.8609    169468.25    73.199931    73.199932     36.52047          120   -8284.3838    -7187.169   -60671.491   -1853.7831   -1432.9474    -3157.243    73.199931    63.393001     36.52047   -25381.015   -309461.62 
     230    1044.7335    169323.44    73.179076    73.179076    36.510065          120   -9083.6653   -7674.2836   -52531.197   -1342.7378    -526.8515   -4690.6341    73.179076    63.374939    36.510065   -23096.382   -309452.49 
     240    1036.0151    169184.98    73.159124    73.159125     36.50011          120   -10066.495   -8899.6784   -50779.434   -1234.0791   -684.71791   -5663.0745    73.159124    63.357661     36.50011   -23248.536   -309458.03 
     250    1052.1359    169052.26    73.139989     73.13999    36.490564          120   -13069.256   -12150.407   -59134.436   -363.32473   -441.63778   -5044.4783    73.139989    63.341089    36.490564   -28118.033   -309511.71 
     260    1066.7709    168923.95    73.121479     73.12148    36.481329          120   -16219.945   -13824.039   -70603.091   -667.22888   -1209.8049    -5307.432    73.121479    63.325059    36.481329   -33549.025   -309564.67 
     270    1055.0404    168798.63    73.103393    73.103393    36.472305          120    -16156.13   -14225.375    -79676.48    334.77488   -1696.7754   -3318.9326    73.103393    63.309396    36.472305   -36685.995   -309567.49 
     280     1033.469     168675.3    73.085585    73.085585    36.463421          120   -16186.016   -14501.512   -86005.223    531.12498   -998.09077   -2368.0512    73.085585    63.293974    36.463421   -38897.584   -309550.68 
     290    1031.3402    168553.29    73.067958    73.067959    36.454626          120   -13722.607    -12665.93   -83071.891    16.845311   -1159.7901   -2730.6664    73.067958    63.278709    36.454626   -36486.809   -309570.41 
     300    1039.2943    168432.67    73.050525    73.050525    36.445929          120   -8890.8082   -9070.9913   -74969.857   -800.90615   -750.27806   -3937.1206    73.050525    63.263611    36.445929   -30977.219   -309608.79 
     310    1034.0315    168314.05    73.033372    73.033372    36.437371          120   -6624.9386   -6454.7878   -63989.962    -1476.508   -992.22049   -3246.0426    73.033372    63.248756    36.437371   -25689.896   -309620.64 
     320    1026.8923    168197.99    73.016581    73.016582    36.428994          120   -6649.7772    -4848.543   -54270.824   -555.25502   -578.11596   -3335.3933    73.016581    63.234215    36.428994   -21923.048   -309629.63 
     330    1018.2642    168084.79    73.000197    73.000198    36.420819          120   -5015.7064   -3538.3068   -48620.089    586.92178   -1395.3312   -4124.1946    73.000197    63.220026    36.420819   -19058.034   -309634.67 
     340    1022.0683     167974.5    72.984227    72.984228    36.412852          120   -4968.2108   -3302.1215   -51896.174    839.02775    -1778.292   -3129.0174    72.984227    63.206196    36.412852   -20055.502   -309662.76 
     350     1031.416    167866.62      72.9686      72.9686    36.405055          120   -6050.8092   -3012.7573   -58293.756    1425.2442   -820.15653   -2049.5671      72.9686    63.192662    36.405055   -22452.441   -309702.56 
     360    1018.5292    167760.39    72.953203    72.953204    36.397374          120   -6897.8892   -4288.3277   -67900.434    1430.5503   -649.55919   -1880.7603    72.953203    63.179328    36.397374   -26362.217   -309700.07 
     370     1005.626    167654.92    72.937912    72.937913    36.389745          120   -5180.7211   -4130.5842   -71401.956    365.93951    -2273.765    -1281.834    72.937912    63.166086    36.389745   -26904.421    -309697.1 
     380     1000.473    167549.89    72.922678    72.922678    36.382144          120   -3052.1613     -2412.28   -70655.956   -693.96715   -2729.7147    -359.9069    72.922678    63.152892    36.382144   -25373.466   -309708.51 
     390    1000.6895    167445.39    72.907514    72.907515    36.374579          120   -2471.3494   -998.97762   -66569.748   -1263.2551   -1547.9408   -1162.3049    72.907514     63.13976    36.374579   -23346.692   -309729.47 
     400    995.91914    167341.69     72.89246    72.892461    36.367068          120    445.25057    282.29408   -59350.146   -524.54207   -851.09983   -1133.5718     72.89246    63.126723    36.367068   -19540.867   -309739.86 
     410    996.02138     167239.3    72.877591    72.877591    36.359649          120    3542.1432    2335.8774    -51338.17    497.08299   -399.31274   -1340.8044    72.877591    63.113845    36.359649   -15153.383   -309760.05 
     420    995.72709    167138.82    72.862992    72.862993    36.352366          120    5282.5108    2843.5989    -46821.98    278.04576   -256.49888   -678.03256    72.862992    63.101203    36.352366   -12898.623   -309779.73 
     430    993.51409    167040.47    72.848698    72.848698    36.345234          120    3118.3539    1751.7735   -48157.814    241.12984    146.51852   -754.87698    72.848698    63.088823    36.345234   -14429.229   -309795.48 
     440    993.31576    166943.88    72.834653    72.834654    36.338227          120    1694.3908     1154.486   -52159.066   -901.00131   -1048.3452   -52.630963    72.834653    63.076661    36.338227    -16436.73   -309815.19 
     450    986.21865    166848.52    72.820784    72.820784    36.331308          120   -326.62032   -129.43922   -58476.363   -1183.8916   -937.13451    -69.62351    72.820784    63.064649    36.331308   -19644.141   -309821.99 
     460    982.00308    166753.83    72.807006    72.807006    36.324434          120    465.18916    289.43756    -61095.81   -485.71693   -227.02903    586.08355    72.807006    63.052717    36.324434   -20113.728   -309831.99 
     470    972.66706    166659.66    72.793297    72.793298    36.317594          120    1797.1811    3994.6906   -59394.426   -208.33836     488.9426    841.53131    72.793297    63.040845    36.317594   -17867.518    -309832.7 
     480    973.26827    166566.31    72.779704    72.779705    36.310812          120    3949.3094    7415.7784   -56960.545    185.64318   -409.54823   -65.219061    72.779704    63.029073    36.310812   -15198.486   -309852.31 
     490    960.44467    166474.25    72.766292    72.766293    36.304121          120    6632.1265    9385.1454   -50817.211     500.6682   -975.48476   -840.90021    72.766292    63.017458    36.304121    -11599.98   -309845.07 
     500    961.19892    166384.01    72.753142    72.753143     36.29756          120    8909.0634    11750.762   -44955.612    119.49547   -2112.2216    150.93504    72.753142     63.00607     36.29756   -8098.5955   -309863.35 
     510    964.19547    166296.11    72.740328    72.740329    36.291167          120    10607.794    12090.642   -42006.494   -1071.4608   -761.00905    771.61061    72.740328    62.994973    36.291167   -6436.0193   -309885.08 
     520    958.34357    166210.73    72.727877    72.727878    36.284955          120    8855.6442    13168.633   -42171.216   -1286.7688   -71.329304     611.7892    72.727877     62.98419    36.284955   -6715.6462   -309890.53 
     530    953.55402    166127.71    72.715767    72.715768    36.278913          120    8052.7243    11551.873   -45773.071   -1284.2305    95.069222    466.97283    72.715767    62.973702    36.278913   -8722.8244   -309897.96 
     540    955.21508    166046.64    72.703937    72.703938    36.273011          120    7704.3707    9887.4047   -48532.646   -1614.4706   -847.56407    1332.5071    72.703937    62.963457    36.273011   -10313.624   -309917.89 
     550    957.24263    165967.18    72.692338    72.692338    36.267224          120    9127.1829    9641.6262   -49111.012    210.32376   -1451.2676    1241.6557    72.692338    62.953412    36.267224   -10114.068    -309938.1 
     560    945.02123    165889.27    72.680961    72.680962    36.261548          120    9665.2516    10875.904   -48595.662    128.66909   -1080.8782    1451.0101    72.680961    62.943559    36.261548    -9351.502   -309929.55 
     570    934.29399    165813.01    72.669822    72.669822    36.255991          120    12936.668    13769.036     -46200.3    216.57585    -1334.798    592.50232    72.669822    62.933912    36.255991   -6498.1987   -309924.64 
     580    944.30049    165738.76    72.658973    72.658973    36.250578          120    13780.896    14509.609   -43876.424   -543.92829   -1585.5273   -229.23672    72.658973    62.924517    36.250578   -5195.3062   -309957.86 
     590     947.4731     165666.7    72.648441    72.648442    36.245323          120    14770.202     15327.85   -41888.434   -281.39977   -1578.1693    504.57871    72.648441    62.915396    36.245323   -3930.1274   -309978.27 
     600    940.31862    165596.95    72.638244    72.638244    36.240236          120    15364.877    16576.428   -40169.148   -446.46689   -1518.1156    34.571066    72.638244    62.906565    36.240236   -2742.6142   -309979.43 
     610    933.48906    165529.62    72.628398    72.628398    36.235324          120    14594.767    17555.793   -37349.737    117.42244   -67.755802    1537.0039    72.628398    62.898038    36.235324    -1733.059   -309980.57 
     620    929.35045    165464.72    72.618906    72.618906    36.230588          120    13993.369    14479.455   -39551.153    974.42274    169.15165    1042.9529    72.618906    62.889818    36.230588   -3692.7763   -309986.09 
     630    930.02584    165401.88    72.609711    72.609712    36.226001          120     14124.07    13360.478   -42262.571   -173.91584   -438.51044    1933.0905    72.609711    62.881855    36.226001   -4926.0079   -310000.65 
     640     924.9999    165340.76    72.600767    72.600767    36.221538          120    14580.187    13163.661   -44674.719   -878.17945   -1061.6655    700.35808    72.600767    62.874109    36.221538   -5643.6236    -310003.2 
     650    923.00295    165281.19    72.592046    72.592047    36.217187          120    14682.768    13239.695   -44033.208    7.0583885   -584.03828   -354.22363    72.592046    62.866557    36.217187   -5370.2485   -310012.35 
     660    920.61415    165223.13    72.583545    72.583546    36.212946          120    15500.519    13837.466   -42199.207   -299.37473   -530.67007    -1276.993    72.583545    62.859195    36.212946   -4287.0742   -310020.42 
     670    922.69819    165166.67    72.575277    72.575277    36.208821          120     15261.87     16035.73   -41191.165    499.75979   -629.58608   -47.328605    72.575277    62.852034    36.208821    -3297.855   -310036.92 
     680    906.53044    165111.96    72.567262    72.567263    36.204822          120    17742.965    19523.215   -37527.539    441.23816   -1552.7838    339.02505    72.567262    62.845093    36.204822   -87.119756   -310017.14 
     690    913.66992    165059.39     72.55956    72.559561     36.20098          120     18879.11    20270.773   -35540.619    198.75331   -1868.9798    -529.5179     72.55956    62.838423     36.20098    1203.0883   -310041.57 
     700    916.96969    165009.13    72.552194    72.552195    36.197305          120    19179.929    19888.624   -34210.726    200.36818   -1349.7401    1419.4129    72.552194    62.832044    36.197305    1619.2756   -310058.07 
     710     916.4676    164961.16    72.545164    72.545164    36.193797          120    19768.901    20391.416   -33836.099    350.44693   -6.6139707    1410.2939    72.545164    62.825955    36.193797    2108.0728   -310067.99 
     720    909.76898    164915.44     72.53846    72.538461    36.190452          120    19489.221    19884.738   -34939.117   -982.84245    863.31284    40.150463     72.53846     62.82015    36.190452    1478.2809   -310065.69 
     730    914.44685    164871.77    72.532057    72.532058    36.187258          120    19614.715     19574.53   -35034.587    86.555235    52.046519    74.927791    72.532057    62.814605    36.187258    1384.8859   -310084.59 
     740    906.39174    164830.06     72.52594     72.52594    36.184206          120    19615.162    20935.459   -35633.039    732.32773   -1304.9888   -742.54531     72.52594    62.809307    36.184206    1639.1937   -310078.62 
     750    909.96655    164790.23    72.520098    72.520099    36.181291          120     19923.42    20851.373   -35918.295    631.48434   -1153.5987   -1088.0268    72.520098    62.804248    36.181291    1618.8327   -310095.14 
     760    902.03607    164752.23    72.514523    72.514524     36.17851          120     20027.24    21301.145   -34330.416     73.37145    -1543.573   -2084.0798    72.514523     62.79942     36.17851    2332.6564    -310088.8 
     770    894.30837    164716.07    72.509217    72.509218    36.175863          120    21305.966    21977.655    -34463.26   -464.34119    605.46745   -2336.0491    72.509217    62.794825    36.175863    2940.1205   -310082.14 
     780    898.41657    164681.81     72.50419     72.50419    36.173354          120    22427.618    22782.803   -31721.001    106.92473    649.87004   -1164.6036     72.50419    62.790471    36.173354    4496.4736   -310097.45 
     790    894.88179    164649.58     72.49946    72.499461    36.170995          120    22646.878    23108.722   -32135.723   -1.6081468   -632.01064    904.20187     72.49946    62.786375    36.170995    4539.9589   -310098.26 
     800    898.57496    164619.31    72.495016    72.495017    36.168778          120    21034.936    23027.428   -33262.276   -118.31144   -1118.9991    1045.3423    72.495016    62.782527    36.168778    3600.0296   -310112.98 
     810    894.40302    164590.78    72.490828    72.490828    36.166688          120    21213.532    22325.129   -31354.537   -817.55117   -699.47154   -549.72358    72.490828    62.778899    36.166688    4061.3747   -310111.17 
     820    895.28225    164563.97    72.486892    72.486893    36.164724          120    21501.465    23596.782   -32194.775   -144.60295    -1851.462    1188.1999    72.486892    62.775491    36.164724    4301.1573   -310119.71 
     830    889.31089    164538.88    72.483207    72.483208    36.162886          120    23219.453    23671.847   -32890.886    -411.9405    -611.8795    625.31543    72.483207      62.7723    36.162886    4666.8046   -310114.15 
     840    889.68124    164515.46     72.47977     72.47977    36.161171          120    23881.961    22744.631    -31332.32   -1355.3148   -979.35448   -1686.4485     72.47977    62.769322    36.161171    5098.0908   -310120.68 
     850    885.65842    164493.76    72.476582    72.476582     36.15958          120    22781.684    23920.096   -29467.353   -1471.1538   -34.665783   -1672.9048    72.476582    62.766562     36.15958    5744.8091   -310118.93 
     860    886.64833     164473.8    72.473651    72.473651    36.158118          120     24104.09    23609.216   -29742.969   -311.33915    403.22304   -810.87517    72.473651    62.764023    36.158118    5990.1121   -310125.61 
     870    889.88736    164455.57    72.470972    72.470973    36.156782          120    24210.575    24755.661   -30867.048    -785.1096    563.52212   -1978.9171    72.470972    62.761704    36.156782    6033.0627   -310134.59 
     880    883.50588       164439    72.468538    72.468539    36.155568          120    24248.594    24684.953   -31887.847   -1053.0417   -444.94404   -1969.7888    72.468538    62.759596    36.155568    5681.8997   -310125.66 
     890     885.0376    164423.96     72.46633     72.46633    36.154466          120    24411.829    23106.132   -32889.956   -957.66581   -958.41023    549.55474     72.46633    62.757683    36.154466    4876.0013   -310131.87 
     900    883.17626    164410.31    72.464323    72.464324    36.153464          120    26057.718     22542.09   -30921.683   -881.88756   -897.67254    1221.9172    72.464323    62.755945    36.153464    5892.7083   -310129.87 
     910    888.39486    164398.12    72.462533    72.462533    36.152571          120    27482.405    24492.849   -31110.355   -251.72035   -764.48265   -592.40935    72.462533    62.754395    36.152571    6954.9664   -310141.65 
     920    885.83013    164387.51    72.460974    72.460974    36.151793          120    26461.613    24521.576   -29962.125   -314.22163   -1261.1427    159.89894    72.460974    62.753045    36.151793    7007.0213   -310137.57 
     930    891.47945    164378.44    72.459642    72.459642    36.151129          120    25470.196    24274.106   -28313.759    -1294.291   -1466.8384    5.0730616    72.459642    62.751891    36.151129    7143.5141    -310148.8 
     940    881.35415     164370.9    72.458534    72.458534    36.150576          120    26062.508    24815.988   -28544.765   -1788.6117   -655.97056    612.74647    72.458534    62.750931    36.150576     7444.577   -310129.98 
     950    891.01072    164364.88    72.457648    72.457649    36.150134          120     26896.96    24553.356   -28673.244   -567.55316   -211.63553   -14.078438    72.457648    62.750165    36.150134    7592.3572   -310148.11 
     960    899.38624    164360.33     72.45698    72.456981    36.149801          120    27249.103    21989.383   -29865.571    33.063564    73.455147   -216.09483     72.45698    62.749586    36.149801    6457.6381   -310163.24 
     970    892.70458    164357.08    72.456502    72.456503    36.149562          120    27462.455    23578.296   -30778.804   -672.12577    1197.9278    611.82171    72.456502    62.749172    36.149562    6753.9822   -310149.64 
     980    889.33609    164355.06    72.456206    72.456206    36.149415          120    26222.616    23885.213    -32325.12   -1500.2564    743.37781   -242.39169    72.456206    62.748916    36.149415    5927.5699    -310142.7 
     990    893.20483    164354.16    72.456074    72.456075    36.149349          120    25427.968    25042.334   -31306.467   -740.99071    42.017674    160.21591    72.456074    62.748801    36.149349    6387.9452   -310148.54 
    1000    889.49414    164354.38    72.456105    72.456106    36.149364          120    24809.047      24802.8   -31368.315   -183.17602    498.63978    210.45788    72.456105    62.748828    36.149364    6081.1773   -310139.55 
Loop time of 417.56 on 1 procs for 1000 steps with 14848 atoms

Performance: 0.207 ns/day, 115.989 hours/ns, 2.395 timesteps/s
100.0% CPU use with 1 MPI tasks x no OpenMP threads

MPI task timing breakdown:
Section |  min time  |  avg time  |  max time  |%varavg| %total
---------------------------------------------------------------
Pair    | 311.98     | 311.98     | 311.98     |   0.0 | 74.71
Bond    | 0.00057364 | 0.00057364 | 0.00057364 |   0.0 |  0.00
Kspace  | 14.651     | 14.651     | 14.651     |   0.0 |  3.51
Neigh   | 81.734     | 81.734     | 81.734     |   0.0 | 19.57
Comm    | 0.61659    | 0.61659    | 0.61659    |   0.0 |  0.15
Output  | 0.013825   | 0.013825   | 0.013825   |   0.0 |  0.00
Modify  | 8.3839     | 8.3839     | 8.3839     |   0.0 |  2.01
Other   |            | 0.1835     |            |       |  0.04

Nlocal:    14848 ave 14848 max 14848 min
Histogram: 1 0 0 0 0 0 0 0 0 0
Nghost:    46671 ave 46671 max 46671 min
Histogram: 1 0 0 0 0 0 0 0 0 0
Neighs:    1.00112e+07 ave 1.00112e+07 max 1.00112e+07 min
Histogram: 1 0 0 0 0 0 0 0 0 0

Total # of neighbors = 10011187
Ave neighs/atom = 674.245
Ave special neighs/atom = 0
Neighbor list builds = 241
Dangerous builds = 0
PPPM initialization ...
  using 12-bit tables for long-range coulomb (../kspace.cpp:321)
  G vector (1/distance) = 0.202493
  grid = 36 50 24
  stencil order = 5
  estimated absolute RMS force accuracy = 0.00100463
  estimated relative force accuracy = 6.97677e-05
  using double precision FFTs
  3d grid and FFT values/proc = 65395 43200
Setting up Verlet run ...
  Unit style    : metal
  Current step  : 0
  Time step     : 0.001
Per MPI rank memory allocation (min/avg/max) = 150.3 | 150.3 | 150.3 Mbytes
Step Temp Volume Cella Cellb Cellc CellGamma Pxx Pyy Pzz Pxy Pxz Pyz Lx Ly Lz Press PotEng 
       0    889.49414    164354.38    72.456105    72.456106    36.149364          120     24818.88    24812.361    -31364.94   -183.07186    498.66758    210.23594    72.456105    62.748828    36.149364    6088.7673   -310139.42 
  100000    908.36719    166994.91    72.842075    72.842075     36.34193          120    19368.867    22144.129   -38595.791   -1535.0886   -3039.0102   -1905.5107    72.842075    63.083088     36.34193    972.40171   -310335.04 
Loop time of 40204.7 on 1 procs for 100000 steps with 14848 atoms

Performance: 0.215 ns/day, 111.680 hours/ns, 2.487 timesteps/s
100.0% CPU use with 1 MPI tasks x no OpenMP threads

MPI task timing breakdown:
Section |  min time  |  avg time  |  max time  |%varavg| %total
---------------------------------------------------------------
Pair    | 30149      | 30149      | 30149      |   0.0 | 74.99
Bond    | 0.055975   | 0.055975   | 0.055975   |   0.0 |  0.00
Kspace  | 1466.2     | 1466.2     | 1466.2     |   0.0 |  3.65
Neigh   | 7675.9     | 7675.9     | 7675.9     |   0.0 | 19.09
Comm    | 59.802     | 59.802     | 59.802     |   0.0 |  0.15
Output  | 0.00012922 | 0.00012922 | 0.00012922 |   0.0 |  0.00
Modify  | 835.41     | 835.41     | 835.41     |   0.0 |  2.08
Other   |            | 18.12      |            |       |  0.05

Nlocal:    14848 ave 14848 max 14848 min
Histogram: 1 0 0 0 0 0 0 0 0 0
Nghost:    46300 ave 46300 max 46300 min
Histogram: 1 0 0 0 0 0 0 0 0 0
Neighs:    9.85095e+06 ave 9.85095e+06 max 9.85095e+06 min
Histogram: 1 0 0 0 0 0 0 0 0 0

Total # of neighbors = 9850954
Ave neighs/atom = 663.453
Ave special neighs/atom = 0
Neighbor list builds = 22710
Dangerous builds = 0
 
All done!
Total wall time: 11:17:03
