LAMMPS (16 Mar 2018)
Reading data file ...
  triclinic box = (0 0 0) to (9.208 7.97436 18.376) with tilt (-4.604 0 0)
  1 by 1 by 1 MPI processor grid
  reading atoms ...
  116 atoms
Finding 1-2 1-3 1-4 neighbors ...
  special bond factors lj:   0          0          0         
  special bond factors coul: 0          0          0         
  0 = max # of 1-2 neighbors
  0 = max # of 1-3 neighbors
  0 = max # of 1-4 neighbors
  1 = max # of special neighbors
Replicating atoms ...
  triclinic box = (0 0 0) to (73.664 63.7949 36.752) with tilt (-36.832 0 0)
  1 by 1 by 1 MPI processor grid
  14848 atoms
Finding 1-2 1-3 1-4 neighbors ...
  special bond factors lj:   0          0          0         
  special bond factors coul: 0          0          0         
  0 = max # of 1-2 neighbors
  0 = max # of 1-3 neighbors
  0 = max # of 1-4 neighbors
  1 = max # of special neighbors
  Time spent = 0.00489807 secs
PPPM initialization ...
WARNING: System is not charge neutral, net charge = -0.2048 (../kspace.cpp:302)
  using 12-bit tables for long-range coulomb (../kspace.cpp:321)
  G vector (1/distance) = 0.201681
  grid = 36 50 24
  stencil order = 5
  estimated absolute RMS force accuracy = 0.00105653
  estimated relative force accuracy = 7.33721e-05
  using double precision FFTs
  3d grid and FFT values/proc = 65395 43200
Neighbor list info ...
  update every 1 steps, delay 0 steps, check yes
  max neighbors/atom: 2000, page size: 100000
  master list distance cutoff = 15.3
  ghost atom cutoff = 15.3
  binsize = 7.65, bins = 15 9 5
  3 neighbor lists, perpetual/occasional/extra = 3 0 0
  (1) pair morse, perpetual
      attributes: half, newton on
      pair build: half/bin/newton/tri
      stencil: half/bin/3d/newton/tri
      bin: standard
  (2) pair buck, perpetual, copy from (1)
      attributes: half, newton on
      pair build: copy
      stencil: none
      bin: none
  (3) pair lj/cut/coul/long, perpetual, copy from (1)
      attributes: half, newton on
      pair build: copy
      stencil: none
      bin: none
Setting up Verlet run ...
  Unit style    : metal
  Current step  : 0
  Time step     : 0.001
Per MPI rank memory allocation (min/avg/max) = 145.7 | 145.7 | 145.7 Mbytes
Step Temp Volume Cella Cellb Cellc CellGamma Pxx Pyy Pzz Pxy Pxz Pyz Lx Ly Lz Press PotEng 
       0           30    172711.88       73.664    73.664001       36.752          120   -211170.77   -211168.69   -282158.13    3.6617811  -0.76700471    1.0187419       73.664    63.794896       36.752   -234832.53   -309191.56 
      10    229.62857    172037.38     73.56798    73.567981    36.704094          120   -211473.79   -211522.64   -259087.28      41.7263    0.4477522   -61.339991     73.56798    63.711741    36.704094   -227361.24   -309712.43 
      20    454.71036    170299.58    73.319431    73.319432     36.58009          120   -202070.86   -201891.36   -187524.87    12.972016    -82.23104   -127.62705    73.319431     63.49649     36.58009   -197162.37   -310417.75 
      30    351.30665    168533.54    73.065104    73.065104    36.453202          120   -180096.93   -179781.81   -94637.189   -110.33118   -298.86224   -155.46614    73.065104    63.276237    36.453202   -151505.31   -310495.44 
      40    99.460142    167155.55    72.865424    72.865425    36.353579          120   -155536.52   -155265.84   -18428.186   -250.82921    -619.5442   -188.64112    72.865424    63.103309    36.353579   -109743.52   -310159.83 
      50    151.24884    165957.08    72.690862    72.690863    36.266488          120    -129490.7   -129234.28    10084.813   -300.70005   -855.79534   -331.61876    72.690862    62.952134    36.266488   -82880.054    -310332.1 
      60    444.19966    164903.68    72.536737    72.536737    36.189593          120   -100671.17   -100339.13   -27168.508   -426.15682   -1491.7226   -362.67599    72.536737    62.818657    36.189593     -76059.6   -310985.68 
      70    585.71535    163982.64    72.401437    72.401438     36.12209          120   -66006.952   -65583.973   -87195.186   -466.56793   -2225.2938   -185.04587    72.401437    62.701484     36.12209   -72928.704   -311409.85 
      80    443.25595    163171.14    72.281808    72.281808    36.062405          120    -28833.11   -28506.634   -115670.92   -681.29911   -2590.3085    37.396267    72.281808    62.597882    36.062405    -57670.22   -311281.47 
      90    259.34777     162480.3    72.179654    72.179654    36.011439          120   -1357.5799   -1214.0919   -109583.53   -1054.0581   -3075.0967    259.81985    72.179654    62.509414    36.011439   -37385.066   -311012.51 
     100    356.19249    161931.32    72.098271    72.098271    35.970836          120    23717.391    24173.927   -75631.652    -1339.893   -3422.5334    483.75209    72.098271    62.438934    35.970836   -9246.7779   -311260.69 
     110    455.37676    161563.21    72.043596    72.043597    35.943558          120    41169.927    42317.945   -26512.897   -1311.3629   -3353.1246    497.44257    72.043596    62.391585    35.943558    18991.658   -311541.57 
     120    367.33996    161403.58    72.019862    72.019863    35.931717          120    39747.479    41435.538    14892.448   -1253.2966   -3749.7332    365.17591    72.019862    62.371031    35.931717    32025.155   -311466.16 
     130    267.07569    161426.79    72.023313    72.023314    35.933439          120    26617.829    28529.526    34642.785   -1259.6536   -4261.5386    30.848468    72.023313     62.37402    35.933439    29930.047   -311340.56 
     140    282.66869    161568.21     72.04434    72.044341    35.943929          120    16165.328    17748.171    24379.195   -1410.8993   -4415.6971   -87.862439     72.04434    62.392229    35.943929    19430.898   -311426.72 
     150    344.12365    161749.65    72.071297    72.071298    35.957378          120    8421.7634    9708.6451   -14223.518    -1374.829   -4339.7146    253.16036    72.071297    62.415575    35.957378    1302.2968   -311614.37 
     160    338.69938    161886.44    72.091609     72.09161    35.967512          120    1640.4496    3851.5754   -51788.273   -1401.5145   -4246.9847    583.61256    72.091609    62.433166    35.967512   -15432.083   -311682.76 
     170    268.73482    161922.35    72.096939     72.09694    35.970171          120    1663.6019    4816.6001   -71144.005   -1600.0719   -3784.3813    624.96992    72.096939    62.437781    35.970171   -21554.601   -311616.11 
     180    229.52199    161857.26    72.087277    72.087278    35.965351          120    9405.5611    12635.923   -71997.886   -1701.0708   -3075.7864    366.14557    72.087277    62.429414    35.965351   -16652.134   -311593.07 
     190    249.66823     161735.9    72.069256    72.069257     35.95636          120    16903.622    20214.298   -54669.076   -1420.3716   -2494.5204    22.551128    72.069256    62.413807     35.95636   -5850.3856    -311681.9 
     200    261.93742    161617.33     72.05164     72.05164    35.947571          120    19872.009    22986.061   -26680.258   -1273.2608   -2089.6478   -633.07806     72.05164    62.398551    35.947571    5392.6041   -311761.87 
     210     228.2482    161548.97     72.04148    72.041481    35.942502          120    20232.753    23108.119   -4750.2361   -788.07669   -2243.0843   -754.75754     72.04148    62.389753    35.942502    12863.545   -311751.53 
     220    198.90959    161551.87    72.041911    72.041911    35.942717          120    19354.017    22417.527    1941.2777   -383.96393   -2946.0248   -581.14423    72.041911    62.390126    35.942717    14570.941   -311738.34 
     230     200.4752    161617.96    72.051734    72.051735    35.947618          120    17692.065    20215.833   -7611.6695   -437.97161    -3654.929   -520.43521    72.051734    62.398633    35.947618    10098.743    -311781.3 
     240     210.9419    161714.23    72.066038    72.066038    35.954754          120    13916.966    15724.136   -26625.303   -658.09919   -4131.6801   -373.76529    72.066038     62.41102    35.954754     1005.266   -311842.76 
     250     199.6762    161795.73    72.078142    72.078143    35.960793          120    11266.781    12341.756   -44542.462   -615.85269   -4280.6147   -222.31974    72.078142    62.421503    35.960793   -6977.9748   -311862.95 
     260    174.41802    161830.51    72.083306    72.083306    35.963369          120    11777.962    12351.138   -55932.656   -737.88848   -3987.8513    9.8521319    72.083306    62.425974    35.963369   -10601.186   -311851.91 
     270    162.99791    161811.59    72.080496    72.080496    35.961968          120    13630.442    14369.852    -55644.83   -760.03712   -3594.8008    161.11022    72.080496    62.423541    35.961968   -9214.8454   -311862.26 
     280    167.51696    161755.59    72.072181    72.072181    35.957819          120    16106.815    17702.677   -44153.128   -321.45478   -3220.3047    271.70924    72.072181     62.41634    35.957819   -3447.8788   -311902.33 
     290    166.26938     161694.8    72.063151    72.063151    35.953314          120    18718.264    21326.781   -29391.812   -148.14651   -3010.7201    162.77881    72.063151     62.40852    35.953314    3551.0779   -311932.32 
     300    153.96688    161660.82    72.058102    72.058103    35.950795          120    20223.238    22952.719   -18499.365   -181.47498   -3055.5255   -99.549357    72.058102    62.404148    35.950795    8225.5306    -311939.7 
     310    141.73291     161669.5    72.059392    72.059392    35.951439          120    19377.094    21439.283   -14866.362   -586.42208   -3327.6946   -559.48096    72.059392    62.405265    35.951439     8650.005    -311944.2 
     320    139.93779    161715.07    72.066162    72.066163    35.954816          120    16003.125    17871.222   -19673.302   -1021.1503   -3685.6182   -659.88081    72.066162    62.411128    35.954816    4733.6814   -311966.59 
     330    140.73095    161774.22    72.074947    72.074948    35.959199          120    13214.072    15005.453   -29854.397   -1253.4398    -4192.508   -749.50239    72.074947    62.418736    35.959199   -544.95723   -311993.73 
     340    132.78807    161821.44    72.081959     72.08196    35.962698          120    12730.741    14720.193   -39979.727   -1236.2311   -4167.0586   -686.32295    72.081959    62.424809    35.962698   -4176.2644   -312003.16 
     350    122.08837    161842.32    72.085059     72.08506    35.964244          120    13399.777    16123.151   -44884.093   -1247.2789   -3633.4276    -576.0781    72.085059    62.427493    35.964244   -5120.3885   -312004.92 
     360    115.81245    161836.99    72.084268    72.084269     35.96385          120    14983.157    17969.267   -42627.113   -1258.1766   -3001.3457   -352.97751    72.084268    62.426808     35.96385   -3224.8961    -312012.5 
     370    115.73993    161818.21     72.08148    72.081481    35.962459          120    17360.119    19545.807    -35721.61   -1260.6501   -2770.6978   -41.571705     72.08148    62.424393    35.962459    394.77203   -312031.51 
     380    112.93613    161804.39    72.079427    72.079427    35.961434          120    19004.059    20388.871   -27853.683   -1126.7589   -2562.7209   -85.943454    72.079427    62.422615    35.961434    3846.4155   -312045.48 
     390    106.20648    161810.12    72.080278    72.080279    35.961859          120    18751.951    19733.209   -22588.524   -1162.3453   -2480.2389    23.473463    72.080278    62.423353    35.961859    5298.8788   -312051.25 
     400    101.04145    161839.17    72.084591    72.084592    35.964011          120    17364.109    18602.026   -22225.457   -1451.8067   -2658.8575    51.375812    72.084591    62.427088    35.964011    4580.2259   -312058.48 
     410    99.191627    161884.86    72.091375    72.091376    35.967395          120    15947.753    17461.471   -26384.819   -1607.8128   -2604.0409    219.60191    72.091375    62.432963    35.967395    2341.4681   -312070.84 
     420     97.43529    161934.67    72.098767    72.098768    35.971083          120    15010.464    16606.486   -32513.847    -1645.572   -2746.9318    310.07254    72.098767    62.439365    35.971083   -298.96555   -312082.82 
     430    93.015227     161975.9    72.104887    72.104887    35.974137          120    14500.408    15607.273    -37684.27   -1681.0244   -2977.4962    454.51234    72.104887    62.444664    35.974137   -2525.5296   -312089.13 
     440    87.701356    161999.71    72.108419     72.10842    35.975899          120    14454.053    15209.991   -39981.774   -1573.9236   -3105.5397    417.11015    72.108419    62.447724    35.975899   -3439.2434   -312092.58 
     450    84.810161    162004.58    72.109141    72.109142    35.976259          120    15304.887    15990.731   -38835.966    -1460.076   -2913.3009    169.12803    72.109141    62.448349    35.976259   -2513.4495   -312100.43 
     460    83.396403    161997.34    72.108067    72.108067    35.975723          120    16487.831    17215.787   -35088.211   -1296.7201   -2745.8586   -224.75084    72.108067    62.447418    35.975723   -461.53095   -312110.05 
     470     81.79626    161989.14     72.10685    72.106851    35.975116          120    17325.909    18353.617   -30080.404   -1015.5027    -2621.696   -551.84171     72.10685    62.446365    35.975116     1866.374    -312119.2 
     480    77.361522    161990.66    72.107076    72.107076    35.975229          120    17487.356    18868.942   -26703.129    -813.9098    -2530.307   -489.79042    72.107076     62.44656    35.975229     3217.723      -312122 
     490    74.205973    162006.69    72.109455    72.109455    35.976416          120    17010.547    18641.398   -26793.433   -704.97328   -2577.7222    -129.8592    72.109455     62.44862    35.976416     2952.837   -312126.65 
     500     73.44577    162034.17    72.113531    72.113531    35.978449          120    16116.012    17816.244   -29474.441    -741.1916   -2800.4968    238.66743    72.113531     62.45215    35.978449    1485.9386   -312135.53 
     510    71.984772     162064.9     72.11809     72.11809    35.980724          120    15192.938    16893.929    -33133.92   -747.20444   -2909.7671    390.58301     72.11809    62.456098    35.980724   -349.01753   -312142.39 
     520    69.017124    162090.21    72.121844    72.121845    35.982597          120    14968.406    16541.062   -35919.317   -701.30652   -2914.5427    436.80246    72.121844     62.45935    35.982597   -1469.9498   -312145.88 
     530    66.170749    162105.64    72.124133    72.124133    35.983739          120    15475.545    17001.492   -37062.274   -565.30474   -2869.5254    380.13661    72.124133    62.461332    35.983739   -1528.4123   -312149.33 
     540    64.870051     162112.1     72.12509    72.125091    35.984216          120    15972.995    17569.335   -36115.914   -352.06602   -2448.8137    288.32578     72.12509    62.462161    35.984216   -857.86167   -312154.97 
     550    63.947741    162113.76    72.125336    72.125337    35.984339          120     16185.56    17856.937    -33811.75   -504.22423   -2278.5363    121.15317    72.125336    62.462374    35.984339    76.915532   -312161.47 
     560    61.402315    162115.64    72.125616    72.125617    35.984479          120    16434.484    17932.564   -31329.478    -597.2113   -2330.3333    73.275213    72.125616    62.462616    35.984479    1012.5236   -312164.66 
     570    58.655323    162121.93    72.126549    72.126549    35.984944          120    16475.398    17558.726   -29975.478   -567.20732   -2525.4671   -107.36997    72.126549    62.463424    35.984944     1352.882      -312167 
     580    57.262213    162133.71    72.128296    72.128296    35.985816          120    16216.301    17171.048   -30156.765   -580.75356   -2819.9259   -136.76308    72.128296    62.464937    35.985816    1076.8614   -312171.33 
     590     56.73871    162149.08    72.130574    72.130575    35.986953          120     15965.79    16838.397   -31486.309   -561.89502   -3083.2247     61.95148    72.130574     62.46691    35.986953    439.29269   -312177.14 
     600    55.407116    162164.69    72.132889     72.13289    35.988108          120    15833.016    16932.478     -33402.9   -432.70149   -3271.3485    220.47888    72.132889    62.468915    35.988108   -212.46864   -312180.96 
     610    53.553691    162177.37    72.134768    72.134769    35.989045          120    15519.721    16927.934   -35167.404   -304.48511   -3342.8762    201.78933    72.134768    62.470543    35.989045   -906.58309   -312183.62 
     620    51.913803    162184.25    72.135789     72.13579    35.989554          120    15256.644    16605.062   -35921.479    -368.9167   -3208.3953    126.19017    72.135789    62.471427    35.989554   -1353.2576   -312186.61 
     630    50.437777    162184.01    72.135754    72.135754    35.989537          120    15356.533     16473.79   -35579.354   -417.92537   -2948.9694   -208.95281    72.135754    62.471396    35.989537   -1249.6771   -312189.49 
     640    49.490843    162178.03    72.134867    72.134867    35.989094          120    15673.056    16791.697   -34020.317   -417.19934   -2733.7983   -428.02364    72.134867    62.470628    35.989094   -518.52132   -312193.15 
     650    47.792608    162170.42    72.133739     72.13374    35.988531          120    16243.423    17536.965   -32079.839   -377.79677   -2574.8886   -296.27652    72.133739    62.469651    35.988531    566.84963   -312195.12 
     660    46.475951    162166.34    72.133134    72.133134    35.988229          120    16745.675    18120.434   -30724.615   -384.08499    -2544.282   -151.80964    72.133134    62.469127    35.988229     1380.498   -312197.33 
     670    45.633735    162169.19    72.133556    72.133557     35.98844          120    16922.389    18412.521   -30419.733      -461.67   -2697.7077    112.84429    72.133556    62.469493     35.98844    1638.3925   -312200.35 
     680    45.142894    162179.33    72.135059     72.13506     35.98919          120     16706.46    18149.331   -31368.102   -608.64137   -2932.8272    400.11628    72.135059    62.470795     35.98919    1162.5631   -312204.06 
     690    44.194385    162193.71    72.137191    72.137192    35.990254          120    16229.766    17526.513   -33405.667   -741.06428   -3119.9287    337.98445    72.137191    62.472641    35.990254    116.87059   -312206.59 
     700    42.835751       162207    72.139162    72.139162    35.991237          120    15734.788    16742.042   -35336.047   -779.05557   -3321.9704    231.85105    72.139162    62.474347    35.991237   -953.07226   -312208.06 
     710    41.915257    162214.51    72.140275    72.140276    35.991792          120    15674.059    16290.192   -35832.726   -755.13906   -3420.1527    262.40804    72.140275    62.475311    35.991792   -1289.4917   -312210.26 
     720    41.358758    162215.23    72.140383    72.140383    35.991846          120    15902.542    16542.414    -35142.48   -750.24001   -3229.4239    209.62039    72.140383    62.475405    35.991846   -899.17453   -312213.03 
     730    40.294057     162211.7    72.139858    72.139858    35.991584          120    16232.447    17001.056   -33638.186   -587.04239   -3154.9705    201.11631    72.139858     62.47495    35.991584    -134.8941   -312214.82 
     740    39.310685    162207.89    72.139294    72.139294    35.991303          120    16690.671    17229.926   -32245.887   -471.35539   -3131.3889    52.798658    72.139294    62.474462    35.991303     558.2366   -312215.98 
     750    38.877552    162207.06    72.139171    72.139172    35.991242          120    16905.903    17257.922   -31593.968   -413.37436   -3109.7494   -85.018589    72.139171    62.474355    35.991242    856.61915   -312218.61 
     760    38.392562    162210.22    72.139639     72.13964    35.991475          120    16670.288    17049.653   -32126.543   -416.89012   -3187.1908   -108.26915    72.139639    62.474761    35.991475    531.13262   -312221.15 
     770    37.506431    162215.47    72.140417    72.140418    35.991863          120    16285.555    16779.015    -33392.54   -370.52695   -3346.5563   -56.770695    72.140417    62.475435    35.991863   -109.32313   -312222.94 
     780    36.459461    162219.69    72.141043    72.141044    35.992176          120     15970.91     16896.33   -34623.721   -303.76989   -3438.3897   -33.989436    72.141043    62.475977    35.992176   -585.49383   -312223.84 
     790    35.723372    162220.73    72.141197    72.141198    35.992252          120    15773.913     17201.13   -35258.143   -344.62183   -3530.2046    -194.5965    72.141197     62.47611    35.992252   -761.03312   -312225.31 
     800    35.251398    162218.11    72.140808    72.140809    35.992058          120    15874.414    17393.441   -35086.419   -432.36936   -3455.0524    -147.7546    72.140808    62.475773    35.992058   -606.18827    -312227.2 
     810    34.894069    162212.89    72.140035    72.140035    35.991673          120     16194.33    17523.001   -34433.691   -568.50299   -3355.7198   -74.070486    72.140035    62.475104    35.991673   -238.78675    -312229.2 
     820    34.488478    162207.15    72.139184    72.139185    35.991248          120    16637.466    17792.807    -33447.17    -524.8945   -3160.7074   -92.873694    72.139184    62.474367    35.991248    327.70081   -312230.79 
     830    33.890735    162203.52    72.138645    72.138646    35.990979          120    17041.748    17901.471   -32761.523   -460.10846   -3063.1243    -319.5843    72.138645      62.4739    35.990979    727.23208   -312231.76 
     840    33.250891    162203.77    72.138683    72.138683    35.990998          120    17152.445    18135.854   -32199.572   -424.79143   -3165.2557   -432.36397    72.138683    62.473932    35.990998    1029.5758   -312232.89 
     850    32.902647    162208.97    72.139453    72.139454    35.991382          120    17236.307    18458.606   -32159.912   -418.69926   -3210.6858   -443.37392    72.139453      62.4746    35.991382    1178.3341   -312234.46 
     860    32.349053    162219.25    72.140978    72.140979    35.992143          120    17193.066    18543.288   -32847.657   -345.58743     -3427.98   -426.04626    72.140978    62.475921    35.992143     962.8992   -312235.53 
     870    32.111978    162233.09     72.14303     72.14303    35.993167          120    17042.132    18122.064   -33878.757   -406.34403   -3527.6639   -394.25598     72.14303    62.477697    35.993167    428.47971   -312236.93 
     880    31.689777    162247.65    72.145188    72.145189    35.994243          120    16760.151     17461.76   -34526.267   -565.60774   -3701.3363   -435.36485    72.145188    62.479566    35.994243   -101.45199   -312238.15 
     890    31.367618    162260.42     72.14708    72.147081    35.995188          120    16487.508    17047.709   -34553.906   -640.02082    -3828.126   -522.66426     72.14708    62.481205    35.995188    -339.5628   -312239.16 
     900    31.153692    162270.41    72.148561    72.148561    35.995926          120     16495.63    16763.545   -34119.762   -662.18191   -3938.8727   -581.34884    72.148561    62.482487    35.995926   -286.86245   -312240.35 
     910    30.732588    162278.16     72.14971     72.14971    35.996499          120    16464.229     16964.16    -33414.63   -504.53783   -3959.0506   -586.96687     72.14971    62.483482    35.996499    4.5864061   -312240.91 
     920    30.073652    162285.15    72.150745    72.150746    35.997016          120    16350.613    17166.153    -32950.81   -310.02592   -3876.0591   -574.62433    72.150745    62.484379    35.997016    188.65183   -312240.89 
     930    29.663877    162292.37    72.151816    72.151817     35.99755          120    16349.035    17144.259   -32691.694   -288.29328    -3791.508   -540.12705    72.151816    62.485306     35.99755     267.2002   -312241.41 
     940    29.262809    162300.11    72.152962    72.152963    35.998122          120    16330.798    17064.528   -33155.226   -341.86519   -3644.0422    -393.0839    72.152962    62.486299    35.998122    80.033536   -312241.86 
     950    28.964365     162307.4    72.154042    72.154043    35.998661          120    16161.833    16900.042   -34006.003   -432.97445   -3654.8674   -184.31849    72.154042    62.487234    35.998661   -314.70924   -312242.61 
     960    28.830107    162312.49    72.154797    72.154797    35.999037          120    15887.412    16833.255   -34566.911   -566.79169   -3645.1799   -102.13961    72.154797    62.487888    35.999037   -615.41472   -312243.78 
     970    29.003533    162314.19    72.155048    72.155049    35.999163          120    15826.949    16973.885   -34833.415   -636.87695   -3666.8784   -203.99827    72.155048    62.488105    35.999163   -677.52686    -312245.2 
     980    28.985449    162312.56    72.154808    72.154808    35.999043          120     16064.85     17300.46   -34597.209   -669.11661   -3693.2822   -259.62015    72.154808    62.487897    35.999043   -410.63278   -312246.23 
     990     28.75103    162309.05    72.154287    72.154287    35.998783          120    16172.989    17419.777   -34174.605   -541.56571   -3887.2212   -332.60848    72.154287    62.487446    35.998783   -193.94641   -312246.73 
    1000    28.532842    162304.87    72.153668    72.153668    35.998474          120    16116.528    17380.806   -33662.755   -446.36088   -4086.7308   -421.64054    72.153668     62.48691    35.998474   -55.140232   -312247.26 
Loop time of 384.462 on 1 procs for 1000 steps with 14848 atoms

Performance: 0.225 ns/day, 106.795 hours/ns, 2.601 timesteps/s
100.0% CPU use with 1 MPI tasks x no OpenMP threads

MPI task timing breakdown:
Section |  min time  |  avg time  |  max time  |%varavg| %total
---------------------------------------------------------------
Pair    | 321.69     | 321.69     | 321.69     |   0.0 | 83.67
Bond    | 0.00057793 | 0.00057793 | 0.00057793 |   0.0 |  0.00
Kspace  | 14.651     | 14.651     | 14.651     |   0.0 |  3.81
Neigh   | 39.049     | 39.049     | 39.049     |   0.0 | 10.16
Comm    | 0.48545    | 0.48545    | 0.48545    |   0.0 |  0.13
Output  | 0.013697   | 0.013697   | 0.013697   |   0.0 |  0.00
Modify  | 8.4017     | 8.4017     | 8.4017     |   0.0 |  2.19
Other   |            | 0.1749     |            |       |  0.05

Nlocal:    14848 ave 14848 max 14848 min
Histogram: 1 0 0 0 0 0 0 0 0 0
Nghost:    46908 ave 46908 max 46908 min
Histogram: 1 0 0 0 0 0 0 0 0 0
Neighs:    1.01389e+07 ave 1.01389e+07 max 1.01389e+07 min
Histogram: 1 0 0 0 0 0 0 0 0 0

Total # of neighbors = 10138922
Ave neighs/atom = 682.848
Ave special neighs/atom = 0
Neighbor list builds = 115
Dangerous builds = 0
PPPM initialization ...
  using 12-bit tables for long-range coulomb (../kspace.cpp:321)
  G vector (1/distance) = 0.202697
  grid = 36 50 24
  stencil order = 5
  estimated absolute RMS force accuracy = 0.000991944
  estimated relative force accuracy = 6.88867e-05
  using double precision FFTs
  3d grid and FFT values/proc = 65395 43200
Setting up Verlet run ...
  Unit style    : metal
  Current step  : 0
  Time step     : 0.001
Per MPI rank memory allocation (min/avg/max) = 152.6 | 152.6 | 152.6 Mbytes
Step Temp Volume Cella Cellb Cellc CellGamma Pxx Pyy Pzz Pxy Pxz Pyz Lx Ly Lz Press PotEng 
       0    28.532842    162304.87    72.153668    72.153668    35.998474          120    16131.348    17396.279   -33652.226   -445.83165   -4086.2306   -422.02026    72.153668     62.48691    35.998474   -41.533345   -312247.04 
      10    28.453032     162300.8    72.153064    72.153065    35.998173          120    16019.337    17529.717   -33435.287   -446.37412   -4061.9601   -414.16957    72.153064    62.486387    35.998173    37.922347   -312247.84 
      20    28.436349    162297.25    72.152539    72.152539    35.997911          120    15985.277    17683.192   -33447.242    -476.9786   -4009.4894   -291.24082    72.152539    62.485932    35.997911     73.74211   -312248.52 
      30    28.013763    162294.36     72.15211    72.152111    35.997697          120    16003.694    17766.805   -33559.392   -579.08536   -3858.6735   -164.00521     72.15211    62.485561    35.997697    70.368861   -312248.39 
      40    27.913704    162292.02    72.151764    72.151765    35.997524          120    16096.672    17742.045   -33871.406   -645.09539   -3600.1115   -193.74523    72.151764    62.485261    35.997524   -10.896573   -312248.49 
      50    27.952383    162289.81    72.151435    72.151436     35.99736          120    16114.717    17726.779   -34266.954   -581.57699   -3596.1816   -271.78004    72.151435    62.484977     35.99736   -141.81926   -312249.06 
      60    27.649562    162287.06    72.151029    72.151029    35.997158          120    16224.145    17553.252   -34616.609   -417.72485    -3633.969   -501.49969    72.151029    62.484625    35.997158   -279.73747   -312249.25 
      70    27.603533    162283.18    72.150454    72.150454    35.996871          120    16261.307      17356.1   -34807.145   -319.82982   -3777.6935   -597.12428    72.150454    62.484127    35.996871   -396.57921   -312249.37 
      80    27.663463    162277.71    72.149643    72.149644    35.996466          120    16098.375    17246.811   -34615.454   -334.37336    -3997.001   -636.26805    72.149643    62.483425    35.996466   -423.42263   -312249.61 
      90    27.680337    162270.73    72.148609    72.148609     35.99595          120    16137.769    17360.087   -34207.554   -361.48334   -4086.6483   -713.89834    72.148609    62.482529     35.99595   -236.56599   -312249.93 
     100    27.610086    162263.24    72.147498    72.147498    35.995396          120    16420.459     17644.57    -33955.85   -373.67872   -4107.9022   -656.53029    72.147498    62.481566    35.995396    36.392983    -312249.9 
     110    27.756555    162256.57    72.146509     72.14651    35.994903          120    16704.158    17863.569   -33667.855   -411.87829   -3989.8805   -570.18369    72.146509     62.48071    35.994903    299.95711   -312250.35 
     120    27.837896    162251.87    72.145814    72.145814    35.994556          120    16859.937    17977.143   -33642.527   -445.08967   -3925.6338   -596.09152    72.145814    62.480108    35.994556    398.18399   -312250.27 
     130    27.792419    162249.45    72.145455    72.145456    35.994377          120    16876.156    18010.892   -33924.408    -534.0196   -3752.9873   -648.80706    72.145455    62.479797    35.994377    320.88006   -312250.03 
     140    27.705728    162248.79    72.145357    72.145357    35.994328          120    16780.431    17932.784    -34112.82   -596.54258   -3637.0684   -717.90669    72.145357    62.479712    35.994328    200.13136   -312249.74 
     150    27.643903    162249.22    72.145421    72.145421    35.994359          120    16741.165     17976.89   -34098.972   -580.72773   -3666.6663   -719.09525    72.145421    62.479768    35.994359    206.36112   -312248.99 
     160    27.951693    162250.74    72.145645    72.145646    35.994472          120    16901.185    18176.367   -33782.718    -464.4761   -3718.3887   -788.62761    72.145645    62.479962    35.994472    431.61157    -312249.3 
     170    28.425264    162254.24    72.146165    72.146165    35.994731          120    16978.505    18411.972   -33471.613   -444.93759   -3978.3409   -920.10005    72.146165    62.480412    35.994731    639.62128   -312249.93 
     180    28.434123    162260.53    72.147097    72.147098    35.995196          120    17069.466    18414.104   -33409.687   -422.85722   -4224.5699   -978.63654    72.147097     62.48122    35.995196    691.29443   -312249.16 
     190    28.497577    162269.63    72.148446    72.148446    35.995869          120    17033.036    18239.178   -33509.726   -435.62025   -4284.6513   -938.76229    72.148446    62.482387    35.995869    587.49599   -312248.84 
     200    28.717504    162280.85    72.150108    72.150109    35.996698          120    16739.477    18077.759   -33523.888   -584.56562   -4257.2057   -866.87356    72.150108    62.483827    35.996698    431.11587    -312248.4 
     210    29.285813    162293.24    72.151944    72.151945    35.997614          120    16477.314    17940.522   -33718.678   -613.07744   -4088.1116   -911.00586    72.151944    62.485417    35.997614    233.05252   -312248.84 
     220    29.629259    162305.75    72.153797    72.153798    35.998539          120    16194.219    18003.596   -34121.489    -609.0699   -3798.3587   -1022.4231    72.153797    62.487022    35.998539    25.442463   -312248.29 
     230    29.652532    162317.36    72.155519    72.155519    35.999398          120    16050.735     17926.77   -34390.512   -647.07194   -3727.7185   -1049.9271    72.155519    62.488513    35.999398   -137.66892   -312247.51 
     240    29.939914    162327.39    72.157004    72.157005    36.000139          120    15907.332    17843.383   -34403.187   -714.71617   -3676.6475   -1064.2643    72.157004    62.489799    36.000139   -217.49069   -312247.47 
     250    30.215327    162335.56    72.158215    72.158216    36.000743          120    15840.352     17841.26     -34281.2   -707.90953   -3687.3985   -1059.2429    72.158215    62.490848    36.000743   -199.86255    -312247.3 
     260    30.479254    162342.13    72.159189     72.15919    36.001229          120    16078.437    17937.315   -34297.339   -832.28034    -3754.715   -1186.7986    72.159189    62.491692    36.001229   -93.862344   -312247.28 
     270    30.714919    162347.73    72.160018    72.160018    36.001642          120    16297.893    18067.476   -34277.029   -1016.1194    -3786.836   -1282.8791    72.160018    62.492409    36.001642    29.446796   -312247.05 
     280    30.684696    162353.03    72.160804    72.160804    36.002034          120    16398.818    18324.956   -34260.705   -1002.5128   -3890.7956   -1111.0099    72.160804     62.49309    36.002034    154.35621   -312246.16 
     290    31.011385    162358.61     72.16163     72.16163    36.002446          120    16381.456    18278.711   -34315.528   -912.71411   -3835.3516   -981.86415     72.16163    62.493805    36.002446    114.87941   -312246.33 
     300    31.525378    162364.22    72.162461    72.162461    36.002861          120    16162.102    18089.008   -34592.836   -752.36197   -3779.6864     -894.099    72.162461    62.494525    36.002861   -113.90859   -312246.73 
     310    31.900382    162368.85    72.163147    72.163147    36.003203          120    16011.313     18013.45   -34816.502     -488.748   -3650.0243   -934.35957    72.163147    62.495119    36.003203   -263.91293   -312246.81 
     320    31.853707    162371.84     72.16359    72.163591    36.003425          120     15946.49    17859.084   -34746.697   -383.07961   -3468.3349   -999.81823     72.16359    62.495503    36.003425   -313.70743   -312246.35 
     330    32.215885    162373.04    72.163769    72.163769    36.003514          120    15887.158    17701.246   -34542.571   -487.82583   -3333.1758   -1145.1559    72.163769    62.495657    36.003514   -318.05568   -312246.72 
     340    32.187674    162372.69    72.163717    72.163717    36.003488          120    16070.361    17905.096   -34264.066   -610.17066   -3196.3283   -1371.8884    72.163717    62.495613    36.003488   -96.203176   -312246.06 
     350    31.937278    162371.83    72.163589     72.16359    36.003424          120    16169.176    17952.457   -34099.283    -578.1664   -3292.4042   -1513.0607    72.163589    62.495502    36.003424    7.4501353   -312245.12 
     360    32.062591    162371.01    72.163468    72.163468    36.003363          120    16076.471    17819.799   -33993.252   -529.45037   -3294.1683   -1468.1889    72.163468    62.495397    36.003363   -32.327258   -312245.33 
     370    32.289444    162370.11    72.163333    72.163334    36.003296          120    15954.866      17956.8   -34028.087   -504.98884   -3405.9083   -1301.4672    72.163333    62.495281    36.003296   -38.806916   -312245.93 
     380    32.354259    162369.13    72.163189    72.163189    36.003224          120    16106.638    18055.889   -33978.687   -496.13907    -3532.881   -1045.1196    72.163189    62.495155    36.003224    61.280123   -312246.03 
     390     32.13193    162368.49    72.163093    72.163094    36.003177          120    16197.265    17977.214    -33977.41   -441.78744   -3591.2292   -932.80083    72.163093    62.495073    36.003177    65.689833   -312245.72 
     400    32.107017    162368.18    72.163048    72.163049    36.003154          120    16098.314    17854.294   -33927.529   -427.84657   -3547.7503   -796.71867    72.163048    62.495034    36.003154     8.359722   -312245.99 
     410    32.504315    162367.99     72.16302    72.163021     36.00314          120    16082.544    17869.313   -33764.166    -557.3985   -3382.9958   -888.96598     72.16302    62.495009     36.00314     62.56375   -312247.11 
     420    32.469444    162368.09    72.163035    72.163036    36.003148          120    15834.842    18119.059   -33779.057   -693.77632   -3291.6569   -1023.5468    72.163035    62.495022    36.003148    58.281262   -312247.24 
     430    32.444466    162368.48    72.163092    72.163093    36.003176          120     15613.43    18328.179   -33783.799   -842.07587   -3129.3849   -881.38588    72.163092    62.495071    36.003176    52.603119   -312247.91 
     440    32.357543    162369.11    72.163186    72.163186    36.003223          120     15810.76    18365.538   -33917.444   -762.55252   -3072.7256   -992.72494    72.163186    62.495153    36.003223    86.284581    -312248.3 
     450    32.416245    162370.06    72.163326    72.163327    36.003293          120    16133.169    18136.297   -34237.391   -634.52264   -3020.4716   -1179.1844    72.163326    62.495274    36.003293     10.69157   -312249.17 
     460    32.064327    162370.98    72.163463    72.163464    36.003361          120     16153.69    18026.537   -34425.594   -603.03872   -3192.1214   -1229.8587    72.163463    62.495393    36.003361   -81.789064   -312249.27 
     470    32.054404    162371.44    72.163531    72.163532    36.003395          120    15869.286    18132.392   -34468.374   -563.62066   -3434.8119   -1280.2693    72.163531    62.495452    36.003395    -155.5653   -312250.09 
     480    31.794645    162371.12    72.163483    72.163484    36.003371          120    15724.985    18283.534   -34515.364   -504.59114   -3485.9373   -1135.3154    72.163483     62.49541    36.003371   -168.94836   -312250.32 
     490    31.224706    162370.06    72.163327    72.163327    36.003293          120    15810.513    18516.383   -34318.777   -460.64712   -3361.8199   -876.07676    72.163327    62.495275    36.003293    2.7065106   -312250.17 
     500    30.965435    162369.08    72.163181    72.163182    36.003221          120    15924.533    18574.852   -34038.793   -508.96704   -3222.7421   -912.17657    72.163181    62.495149    36.003221    153.53072   -312250.49 
     510    30.884187    162368.94     72.16316    72.163161     36.00321          120     16171.48     18399.77   -33727.352   -459.75997   -3020.3554   -1010.3726     72.16316     62.49513     36.00321    281.29935   -312251.48 
     520    30.743161    162370.11    72.163335    72.163335    36.003297          120     16304.57    18188.761   -33775.769   -448.14347   -2963.9112   -1030.0825    72.163335    62.495282    36.003297    239.18744   -312252.55 
     530    30.589779    162372.31     72.16366    72.163661     36.00346          120    16147.912    17981.002   -34001.427   -622.77231   -3017.3097   -1096.2269     72.16366    62.495564     36.00346    42.495507   -312253.47 
     540    30.271936    162374.58    72.163996    72.163996    36.003627          120    15946.351    17848.063    -34190.63   -752.61606   -2975.7886    -1021.578    72.163996    62.495854    36.003627   -132.07216    -312253.5 
     550    30.065043    162375.96      72.1642    72.164201    36.003729          120     15643.33    17814.225   -34630.493   -758.05972   -3059.2881   -846.16397      72.1642    62.496031    36.003729   -390.97928   -312254.01 
     560    30.028341    162375.33    72.164107    72.164108    36.003683          120    15301.524    17975.928   -34977.443   -655.52019   -3164.4376   -834.31967    72.164107    62.495951    36.003683   -566.66372   -312254.92 
     570    30.010338       162372    72.163614    72.163615    36.003436          120    15175.836    18178.715   -35142.108   -612.82714    -3318.948   -795.84056    72.163614    62.495524    36.003436   -595.85212   -312255.92 
     580     29.78957       162366    72.162726    72.162726    36.002993          120     15398.13    18104.787   -34996.818   -577.46488   -3507.7124   -690.96341    72.162726    62.494754    36.002993   -497.96675   -312256.46 
     590    29.584655    162358.07    72.161551    72.161551    36.002407          120    15992.824     18004.04    -34527.77   -561.37901   -3611.3797     -732.066    72.161551    62.493737    36.002407   -176.96854   -312256.98 
     600    29.145968    162349.85    72.160332    72.160333    36.001799          120    16600.161    18085.856    -34102.86    -637.7643   -3472.4517   -886.70827    72.160332    62.492682    36.001799    194.38572   -312257.31 
     610    29.105226    162343.14    72.159338    72.159339    36.001303          120    16724.652    18340.138   -33704.471   -762.24806   -3204.5989   -968.69344    72.159338     62.49182    36.001303    453.43951   -312257.77 
     620     29.02454    162339.07    72.158736    72.158736    36.001003          120     16848.44    18596.215   -33804.195   -802.81992   -2997.5873   -966.42539    72.158736    62.491299    36.001003    546.81985   -312258.18 
     630    28.629736    162337.97    72.158573    72.158573    36.000921          120    16925.611    18774.399   -33979.942     -705.537   -2850.0944   -960.63578    72.158573    62.491158    36.000921    573.35589   -312258.12 
     640    28.490481    162339.75    72.158836    72.158836    36.001052          120    16847.916    18723.672   -34027.893   -564.88691   -2706.1724    -973.3113    72.158836    62.491385    36.001052    514.56506   -312258.47 
     650    28.422377    162343.92    72.159454    72.159454    36.001361          120    16847.961    18600.966   -34237.032    -528.5304   -2745.7219   -909.59321    72.159454    62.491921    36.001361    403.96494   -312259.23 
     660    28.582208    162349.85    72.160332    72.160332    36.001799          120     16860.18    18467.371   -34213.914   -587.05726   -2805.8476   -966.82606    72.160332    62.492681    36.001799    371.21223   -312259.97 
     670    28.563195     162357.2    72.161421    72.161421    36.002342          120    16732.718    18493.772   -34198.261   -616.08603   -2832.0215   -1206.0573    72.161421    62.493624    36.002342    342.74305   -312260.27 
     680    28.431053    162365.71    72.162681    72.162682    36.002971          120    16474.978    18533.068   -34208.981    -708.5103   -2885.4928   -1365.4827    72.162681    62.494716    36.002971    266.35514   -312260.73 
     690    28.486171    162374.92    72.164047    72.164048    36.003652          120    16076.888    18500.252   -34069.823   -853.58938    -2889.273   -1420.1734    72.164047    62.495899    36.003652    169.10567   -312261.08 
     700    28.513043    162384.36    72.165445    72.165446     36.00435          120    15843.469    18387.308   -33835.623    -799.1001   -2884.4341   -1308.3521    72.165445    62.497109     36.00435    131.71807   -312261.27 
     710    28.381696    162393.78    72.166841    72.166841    36.005046          120    15796.972    18345.706   -33990.268   -684.22108   -2867.4538   -1220.2992    72.166841    62.498318    36.005046    50.803083   -312260.97 
     720    28.245655    162402.76     72.16817    72.168171     36.00571          120    15729.109    18125.429   -34251.964   -704.23823    -2847.284   -1117.3578     72.16817     62.49947     36.00571   -132.47521   -312260.69 
     730    28.382799    162410.45     72.16931     72.16931    36.006278          120      15611.9    17915.528   -34490.655     -776.578   -2856.0479   -935.02361     72.16931    62.500456    36.006278   -321.07544   -312260.95 
     740    28.384532    162416.05    72.170139    72.170139    36.006692          120    15554.116    17953.276   -34750.506   -922.05342   -2875.2285   -955.52038    72.170139    62.501174    36.006692   -414.37142   -312261.06 
     750    28.393557    162419.24    72.170612    72.170613    36.006928          120    15639.869    18116.106   -34986.761    -977.4835   -2793.8476   -1022.9074    72.170612    62.501584    36.006928   -410.26199   -312261.05 
     760    28.311885    162420.17     72.17075     72.17075    36.006997          120    15734.038    18194.991   -35142.295   -872.44406   -2639.6779   -1112.4831     72.17075    62.501703    36.006997   -404.42221   -312260.75 
     770    28.056351    162419.04    72.170583    72.170583    36.006913          120    15763.914     18239.37   -35047.995   -577.13058   -2535.2455   -1137.0543    72.170583    62.501559    36.006913   -348.23691   -312260.27 
     780    28.001665    162416.24    72.170168    72.170168    36.006706          120    15818.472    18063.161   -34803.052   -506.47812   -2647.9669    -1089.287    72.170168    62.501199    36.006706   -307.13968   -312260.01 
     790    28.201642    162412.12    72.169557    72.169557    36.006401          120     15950.98    18026.834   -34609.012   -563.13829   -2758.9877   -1035.9445    72.169557     62.50067    36.006401   -210.39953   -312260.29 
     800    28.673552    162407.26    72.168837    72.168837    36.006042          120    16065.736    18241.315   -34431.973   -528.20924   -2728.7949   -983.20367    72.168837    62.500047    36.006042    -41.64051   -312261.09 
     810    28.732096    162402.48    72.168129     72.16813    36.005689          120    16004.205    18513.576   -34290.163   -568.40075    -2775.741   -1110.5765    72.168129    62.499434    36.005689    75.872286   -312260.87 
     820    29.074125     162398.4    72.167525    72.167526    36.005388          120    16055.507    18756.498   -34342.003   -585.85292   -2757.9521   -1257.1713    72.167525    62.498911    36.005388    156.66696   -312260.83 
     830    29.332594    162395.24    72.167056    72.167057    36.005154          120    15897.888    18485.008   -34558.265   -539.01361   -2781.7212   -1345.7846    72.167056    62.498505    36.005154   -58.456551   -312260.81 
     840    29.273899    162391.95    72.166569    72.166569    36.004911          120    15647.416    18153.579   -34803.817   -469.57025   -2876.7991   -1314.4117    72.166569    62.498083    36.004911   -334.27391   -312260.26 
     850    29.222046    162387.31    72.165881    72.165882    36.004568          120    15685.475    18000.318     -34803.5   -378.30799   -2885.0121   -1506.4809    72.165881    62.497487    36.004568   -372.56914   -312259.87 
     860    29.729753     162381.2    72.164976    72.164977    36.004116          120    15826.874    18009.385   -34508.881   -394.09156   -2873.3696   -1654.9605    72.164976    62.496703    36.004116   -224.20739   -312260.12 
     870    30.290827    162374.43    72.163974    72.163975    36.003616          120    16191.728    18237.969   -34287.845   -467.76611   -2827.4098    -1451.101    72.163974    62.495835    36.003616    47.283925   -312260.56 
     880    30.244307    162368.26     72.16306     72.16306     36.00316          120     16286.39    18431.852   -34278.874   -369.27386   -2736.3026   -1235.5995     72.16306    62.495043     36.00316    146.45582   -312260.11 
     890    30.290974    162363.19    72.162309     72.16231    36.002786          120    16440.815    18361.386   -34299.464   -357.27853   -2713.3337   -905.13637    72.162309    62.494394    36.002786    167.57906    -312259.4 
     900    30.526863    162359.27    72.161728    72.161728    36.002495          120    16661.789    18189.654   -34326.286   -250.78637   -2693.7082   -820.62284    72.161728     62.49389    36.002495    175.05223   -312259.42 
     910    30.535109     162356.5    72.161317    72.161318    36.002291          120    16818.201    18088.007   -34159.308   -207.39223   -2594.4936   -952.17984    72.161317    62.493535    36.002291    248.96648   -312258.67 
     920    30.473219    162355.13    72.161115    72.161116     36.00219          120    16876.777     18047.31    -34012.21   -393.42598   -2726.5839   -1230.9019    72.161115    62.493359     36.00219     303.9592   -312258.24 
     930    30.626303    162355.38    72.161152    72.161152    36.002208          120    16878.788    18162.338   -33893.688   -400.03715   -2793.4902     -1501.65    72.161152    62.493391    36.002208     382.4794   -312258.33 
     940    30.914149    162357.46     72.16146    72.161461    36.002362          120    16858.302    18326.704    -34068.03   -274.90635   -2852.7525   -1593.4082     72.16146    62.493659    36.002362    372.32529   -312258.58 
     950     31.02161    162361.25    72.162021    72.162021    36.002642          120    16883.357    18420.821   -34371.061   -218.20297   -3026.1508   -1718.5122    72.162021    62.494144    36.002642    311.03887   -312258.29 
     960    31.184154    162366.33    72.162774    72.162775    36.003018          120    16989.113    18341.905   -34559.233   -52.605646   -3098.7663   -1764.4586    72.162774    62.494797    36.003018     257.2617   -312258.37 
     970    31.298638    162372.39    72.163672    72.163672    36.003465          120    17122.665    18140.546   -34487.489   -37.644847   -3081.1544   -1564.3208    72.163672    62.495573    36.003465     258.5741   -312258.15 
     980    31.443783    162379.31    72.164697    72.164698    36.003977          120    16992.977     17952.68   -34342.371   -178.06968   -2947.3858   -1528.7907    72.164697    62.496462    36.003977    201.09565   -312258.18 
     990    31.497289    162386.76      72.1658      72.1658    36.004527          120    16670.839    17887.348   -34312.042   -342.78679   -2772.8361   -1531.5764      72.1658    62.497417    36.004527    82.048495   -312258.06 
    1000    31.651246    162394.24    72.166908    72.166908     36.00508          120    16525.082    18143.829    -34210.79   -344.16242   -2539.6971   -1476.3424    72.166908    62.498376     36.00508    152.70704   -312258.28 
    1010     31.82768    162401.98    72.168055    72.168056    36.005652          120    16260.279    18475.544   -34153.178   -342.93315   -2329.1366   -1452.8334    72.168055     62.49937    36.005652    194.21513   -312258.29 
    1020    31.675745    162410.16    72.169267    72.169268    36.006257          120    16169.122    18513.881   -34265.785   -460.24887   -2294.4719   -1359.1159    72.169267    62.500419    36.006257    139.07256   -312257.72 
    1030    31.696865    162418.44    72.170493    72.170494    36.006869          120    16041.608    18308.791   -34555.949   -575.54301   -2234.0463   -1427.6186    72.170493    62.501481    36.006869    -68.51659   -312257.94 
    1040    31.684599    162425.82    72.171586    72.171587    36.007414          120    15744.084     18158.61   -34882.335   -566.56457   -2359.5122   -1384.3363    72.171586    62.502428    36.007414   -326.54707   -312257.92 
    1050    31.678583    162431.11     72.17237    72.172371    36.007805          120    15436.783    18024.391    -35087.47   -507.38686   -2640.6476   -1307.8304     72.17237    62.503107    36.007805   -542.09896    -312258.1 
    1060    31.693887    162433.41     72.17271    72.172711    36.007975          120    15304.735    17837.899   -35078.494    -389.7839   -2710.6218   -1345.4271     72.17271    62.503401    36.007975   -645.28655   -312258.17 
    1070     31.20561    162432.43    72.172564    72.172565    36.007902          120    15590.687    17753.838   -34943.422    -326.0612   -2709.9555   -1510.6261    72.172564    62.503275    36.007902   -532.96542   -312257.99 
    1080    30.927806    162428.93    72.172047    72.172048    36.007644          120    15857.055    17972.518   -34569.297   -386.12844   -2656.6046   -1590.2385    72.172047    62.502827    36.007644   -246.57463   -312257.72 
    1090    30.640906    162424.36    72.171371    72.171371    36.007306          120    15961.796     18083.04   -34362.759   -395.89584   -2589.2347   -1487.0655    72.171371    62.502241    36.007306   -105.97447   -312257.48 
    1100    30.930229    162419.46    72.170644    72.170645    36.006944          120    16032.952    17978.694   -34494.269    -473.6098   -2662.0552   -1370.6204    72.170644    62.501612    36.006944   -160.87447   -312258.57 
    1110    30.906578    162414.06    72.169844    72.169845    36.006545          120    16125.676    17999.479   -34832.102   -505.58915   -2738.9816    -1222.291    72.169844    62.500919    36.006545   -235.64903   -312259.11 
    1120    30.966184    162407.84    72.168923    72.168923    36.006085          120    16155.411     17958.63   -34858.521   -436.38373   -2546.3853   -1186.7941    72.168923    62.500121    36.006085   -248.15998   -312259.66 
    1130    30.721352    162400.83    72.167885    72.167885    36.005567          120    16237.582    17964.458     -34504.3   -313.38243   -2319.4748   -1113.5082    72.167885    62.499222    36.005567   -100.75337   -312259.79 
    1140    30.486835    162393.74    72.166835    72.166835    36.005043          120    16406.485    18041.373   -34300.423   -185.45554   -2272.7666   -1135.3685    72.166835    62.498313    36.005043    49.144871   -312259.91 
    1150    30.263125    162387.33    72.165885    72.165885    36.004569          120    16615.035    18170.004   -34266.051    -158.5553   -2258.4765   -1163.7675    72.165885     62.49749    36.004569     172.9959   -312260.15 
    1160    30.219602    162382.12    72.165114    72.165114    36.004185          120    16630.834    18257.009   -34152.202   -248.11793   -2401.1115   -1275.6282    72.165114    62.496822    36.004185    245.21366   -312260.84 
    1170    30.093567    162378.49    72.164575    72.164576    36.003916          120    16637.842    18354.626   -33850.142   -225.27842   -2546.6186   -1463.5607    72.164575    62.496356    36.003916     380.7754   -312261.34 
    1180    30.009737    162376.92    72.164343    72.164344      36.0038          120    16666.957    18395.355   -33818.711  -0.18643215   -2573.2949   -1430.1415    72.164343    62.496155      36.0038    414.53353   -312261.72 
    1190    29.865664    162377.52    72.164431    72.164432    36.003844          120    16704.652    18475.744   -33913.382    -29.89297   -2649.4739   -1450.9972    72.164431    62.496232    36.003844    422.33769   -312261.85 
    1200    29.821595    162380.16    72.164823    72.164824     36.00404          120    16585.964    18496.128    -33876.18   -127.19533   -2768.0804   -1417.8499    72.164823    62.496571     36.00404    401.97066   -312262.51 
    1210    29.890152    162384.67    72.165491    72.165492    36.004373          120     16582.31    18448.556   -33792.987   -182.56175   -2664.4382     -1331.21    72.165491    62.497149    36.004373    412.62659    -312262.9 
    1220     29.99476    162390.97    72.166424    72.166424    36.004838          120    16546.934    18478.758   -33675.848   -322.53995   -2578.9042   -1318.5566    72.166424    62.497957    36.004838    449.94818   -312263.89 
    1230    29.760322    162399.08    72.167625    72.167626    36.005438          120    16407.728    18462.826   -33669.709   -349.41562   -2559.5096   -1310.2353    72.167625    62.498997    36.005438    400.28151   -312264.06 
    1240    29.708846    162408.67    72.169047    72.169047    36.006147          120    16155.757    18394.173   -33681.657   -311.66649   -2604.7779   -1335.4301    72.169047    62.500228    36.006147    289.42447   -312264.53 
    1250    29.439729    162419.15    72.170598    72.170598    36.006921          120    16074.526    18329.522   -33758.133     -223.844   -2698.7391   -1373.0266    72.170598    62.501572    36.006921    215.30509   -312264.24 
    1260    29.191029    162430.11    72.172222    72.172222    36.007731          120    16154.707    18298.586   -33759.936   -230.70228   -2636.3707   -1501.8576    72.172222    62.502978    36.007731    231.11906   -312264.07 
    1270     29.25967    162441.53    72.173914    72.173914    36.008575          120     16230.67    18111.781   -33880.403   -264.52518   -2546.8375   -1623.3612    72.173914    62.504443    36.008575    154.01612   -312264.63 
    1280    29.113785    162452.95    72.175605    72.175605    36.009419          120    15986.211    17933.976   -34226.335   -296.99392   -2635.1347   -1538.1124    72.175605    62.505908    36.009419   -102.04927   -312264.73 
    1290    29.259053    162463.15    72.177115    72.177115    36.010172          120    15586.559    17896.545   -34716.994   -317.72411   -2815.0797   -1364.8396    72.177115    62.507216    36.010172   -411.29668   -312265.13 
    1300    29.391063    162470.76    72.178242    72.178243    36.010735          120    15392.443    17940.039   -34970.491   -302.93136   -2847.7734   -1270.8499    72.178242    62.508192    36.010735   -546.00306   -312265.59 
    1310    29.023133    162475.23    72.178903    72.178904    36.011064          120    15356.658      17691.6   -34817.252   -218.72996   -2731.0547   -1362.1602    72.178903    62.508764    36.011064   -589.66472   -312265.27 
    1320    28.835315    162476.44    72.179083    72.179084    36.011154          120    15425.048    17410.293   -34855.154   -151.18797   -2676.4012   -1401.3625    72.179083     62.50892    36.011154   -673.27099   -312265.21 
    1330    28.657602    162474.28    72.178764    72.178764    36.010995          120    15612.403    17446.625   -34871.705   -141.03783   -2586.9247   -1282.5474    72.178764    62.508644    36.010995   -604.22601   -312265.18 
    1340    28.488045    162469.29    72.178024    72.178025    36.010626          120    15949.045    17729.993   -34849.209   -15.160425   -2534.4501   -1114.4857    72.178024    62.508003    36.010626   -390.05673   -312265.06 
    1350    28.494499    162462.65     72.17704    72.177041    36.010135          120     16088.13    17968.976   -34606.089    78.270941   -2624.7789   -1028.2244     72.17704    62.507151    36.010135   -182.99439   -312265.02 
    1360    28.614197    162455.44    72.175973    72.175973    36.009602          120    16148.583    18068.901   -34418.566    35.227949     -2591.62   -1186.2513    72.175973    62.506227    36.009602   -67.027379   -312265.39 
    1370    28.663935    162448.27    72.174911    72.174912    36.009073          120    16269.485    18104.091   -34547.944   -9.0240402   -2523.0535   -1286.8607    72.174911    62.505307    36.009073   -58.122921   -312265.47 
    1380    28.691652    162441.23    72.173868    72.173869    36.008552          120    16432.335     18148.71   -34685.456   -121.68998   -2406.7938   -1323.8703    72.173868    62.504404    36.008552   -34.803562   -312265.99 
    1390     28.81942    162434.51    72.172873    72.172873    36.008056          120     16651.86    18167.191   -34325.013   -197.31732   -2332.5082   -1325.3407    72.172873    62.503542    36.008056    164.67931   -312265.82 
    1400    28.901685    162429.04    72.172063    72.172063    36.007652          120    16726.281    18488.336   -33901.506   -200.39691    -2470.263   -1392.8543    72.172063     62.50284    36.007652    437.70353   -312265.81 
    1410    28.786611     162426.1    72.171628    72.171628    36.007435          120    16754.238    19056.408   -33550.881   -261.31272   -2706.2444   -1311.4124    72.171628    62.502464    36.007435    753.25494   -312265.46 
    1420    28.917083    162427.06     72.17177     72.17177    36.007506          120    16858.489    19272.269   -33264.205     -368.826   -2798.6766   -1066.7068     72.17177    62.502587    36.007506    955.51772   -312265.84 
    1430    28.970992     162432.6     72.17259    72.172591    36.007915          120    16689.175    19234.549   -33394.212   -411.64692   -2645.7311   -1123.2303     72.17259    62.503297    36.007915    843.17112   -312265.58 
    1440     29.12927    162441.89    72.173966    72.173966    36.008601          120    16372.296    18918.502   -33992.448    -357.2725   -2448.1125   -1195.6385    72.173966    62.504488    36.008601    432.78354   -312265.13 
    1450    29.422722    162452.78     72.17558     72.17558    36.009406          120    16130.479    18612.744   -34702.071   -219.28625   -2489.3673   -1162.4979     72.17558    62.505886    36.009406    13.717405   -312265.26 
    1460    29.230143    162463.24    72.177128    72.177129    36.010179          120    15961.687    18434.724   -34794.175   -91.704526   -2562.6473    -1257.958    72.177128    62.507227    36.010179   -132.58798   -312264.42 
    1470     29.25931     162472.5    72.178499    72.178499    36.010863          120    15871.241    18324.673   -34564.353   -96.129998   -2535.5906   -1396.4908    72.178499    62.508414    36.010863   -122.81295   -312263.98 
    1480     29.37086    162480.59    72.179698    72.179698    36.011461          120    15975.058    18230.415   -34515.125   -140.26836   -2412.2003   -1406.5423    72.179698    62.509453    36.011461     -103.217   -312263.77 
    1490    29.547565    162487.75    72.180758    72.180758     36.01199          120    16093.901    18275.722   -34355.203   -204.65744   -2418.7775   -1421.7237    72.180758     62.51037     36.01199    4.8067024   -312263.86 
    1500    29.778391    162494.46    72.181752    72.181752    36.012486          120    16010.656    18284.846   -34321.172   -201.41111   -2432.0285   -1325.1362    72.181752    62.511231    36.012486   -8.5565012   -312263.89 
    1510    29.880677    162500.65    72.182668    72.182669    36.012943          120    15766.039    18155.607   -34541.396   -185.78312   -2536.4612   -1147.9657    72.182668    62.512025    36.012943   -206.58326   -312263.84 
    1520    29.794437    162505.54    72.183392    72.183392    36.013304          120    15718.612    18151.126   -34605.852   -200.22846   -2513.2694   -1056.8065    72.183392    62.512652    36.013304   -245.37124    -312263.1 
    1530    29.847615    162508.85    72.183882    72.183882    36.013548          120    15631.378    18016.472   -34812.113   -216.29963    -2459.796   -1036.3513    72.183882    62.513076    36.013548   -388.08782   -312262.93 
    1540     29.77787    162509.99    72.184051    72.184052    36.013633          120    15377.076    17829.964   -34987.579   -150.27186   -2563.6004   -1086.6716    72.184051    62.513223    36.013633   -593.51303   -312262.45 
    1550    30.115003    162508.15    72.183779    72.183779    36.013497          120    15240.839    17751.817     -35098.6   -61.533072   -2509.6781   -1266.5061    72.183779    62.512987    36.013497   -701.98127   -312262.36 
    1560    30.395994    162502.93    72.183006    72.183007    36.013111          120     15400.59    17633.771   -35165.499    39.053105   -2558.3678   -1432.3083    72.183006    62.512318    36.013111   -710.37932   -312262.59 
    1570    30.612735     162494.5    72.181757    72.181758    36.012488          120    15606.769    17647.918   -35054.072    33.424527   -2678.2704   -1479.3631    72.181757    62.511236    36.012488    -599.7951   -312262.68 
    1580     30.82686    162483.55    72.180135    72.180136    36.011679          120    15666.946    17826.347   -34807.483    166.26418   -2787.7633   -1645.9914    72.180135    62.509831    36.011679   -438.06359   -312262.53 
    1590     30.99965    162471.07    72.178287    72.178288    36.010757          120    15694.785    18159.385   -34370.992    133.94616   -2797.3357   -1611.9745    72.178287    62.508231    36.010757   -172.27391   -312262.53 
    1600    31.278436    162458.32      72.1764    72.176401    36.009816          120    15677.012    18343.566   -34354.251   -15.758046   -2751.2611   -1435.8494      72.1764    62.506597    36.009816    -111.2247   -312262.85 
    1610    31.247883    162445.66    72.174525    72.174525     36.00888          120    15602.968    18100.719   -34344.516    102.02104   -2583.3403   -1282.6939    72.174525    62.504972     36.00888   -213.60948   -312262.73 
    1620    31.159266    162432.66      72.1726      72.1726    36.007919          120    15772.963    17861.425   -34308.073    35.830629   -2487.2584   -1201.6607      72.1726    62.503305    36.007919   -224.56171   -312262.54 
    1630    31.323054    162419.37     72.17063    72.170631    36.006937          120    16139.321    17984.872   -34137.225   -93.443521   -2490.4917   -1212.9211     72.17063      62.5016    36.006937   -4.3439093   -312262.43 
    1640    31.502754    162406.78    72.168766    72.168767    36.006007          120    16259.015    18167.591   -33770.856   -160.73347   -2384.1562   -1281.6161    72.168766    62.499986    36.006007     218.5833   -312262.55 
    1650    31.001074    162395.94    72.167161    72.167161    36.005206          120    16393.052    18275.744   -33624.107   -223.20329   -2350.3944   -1416.7965    72.167161    62.498595    36.005206    348.22985   -312261.71 
    1660    31.225273    162387.44    72.165901    72.165902    36.004578          120    16531.111     18481.69   -33672.394    -270.5894   -2345.3875   -1494.2373    72.165901    62.497504    36.004578    446.80203   -312262.27 
    1670    31.237147    162381.58    72.165033    72.165033    36.004144          120    16477.909    18577.125   -33879.342   -217.63633   -2484.5941   -1445.3704    72.165033    62.496752    36.004144    391.89738   -312262.27 
    1680    31.093772    162377.98      72.1645    72.164501    36.003879          120    16334.355    18549.593   -33952.677   -167.19712   -2578.7148   -1505.9675      72.1645    62.496291    36.003879    310.42372   -312262.13 
    1690    31.148071    162376.22    72.164239    72.164239    36.003748          120    16451.892    18519.122   -33752.135    -87.80625   -2679.1661   -1692.4197    72.164239    62.496065    36.003748    406.29283   -312262.09 
    1700    31.342755    162376.61    72.164297    72.164297    36.003777          120    16817.349    18608.657   -33687.562   -74.106764   -2705.0954   -1807.5777    72.164297    62.496115    36.003777    579.48137    -312262.6 
    1710    31.473169    162379.87     72.16478     72.16478    36.004018          120    16933.497     18961.43   -33790.067   -135.51483   -2649.1478   -1678.2628     72.16478    62.496533    36.004018    701.61998   -312263.01 
    1720    31.370878    162386.39    72.165746    72.165746      36.0045          120    16755.846    19070.734   -33819.248    -214.8656   -2580.9107    -1557.521    72.165746     62.49737      36.0045    669.11069   -312262.98 
    1730    31.112098    162395.82    72.167142    72.167143    36.005197          120    16370.764    18993.158   -33949.517   -288.36722   -2475.4059   -1516.6084    72.167142    62.498579    36.005197    471.46808   -312262.83 
    1740    31.143014    162407.09    72.168812    72.168813     36.00603          120    16082.916    19002.181   -34180.343    -266.3363   -2453.4419    -1250.912    72.168812    62.500026     36.00603    301.58473   -312263.15 
    1750    31.118961    162419.32    72.170624    72.170625    36.006934          120    15912.648    19026.744   -34201.533   -251.79563   -2429.9703   -1147.1571    72.170624    62.501594    36.006934    245.95314    -312263.3 
    1760    31.028554    162432.03    72.172506    72.172506    36.007873          120    15658.959     18745.35    -34325.61   -284.99057   -2433.1375   -1313.2602    72.172506    62.503224    36.007873     26.23326   -312263.32 
    1770    30.825623    162444.24    72.174314    72.174315    36.008775          120    15594.365    18527.352   -34317.675   -243.76579   -2475.8105   -1242.4541    72.174314     62.50479    36.008775   -65.319135   -312263.29 
    1780    30.721948    162455.55     72.17599     72.17599    36.009611          120    15673.423    18642.833   -34171.275   -345.82295   -2387.8771   -1163.9189     72.17599    62.506241    36.009611    48.326777   -312263.39 
    1790    30.753071    162466.43    72.177601    72.177601    36.010415          120    15788.074    18606.172   -34222.923   -488.84188    -2263.043   -1101.6247    72.177601    62.507637    36.010415    57.107579   -312264.02 
    1800    30.416204    162476.96    72.179161    72.179161    36.011193          120    15642.356    18503.024   -34248.048   -466.53507   -2220.8779   -1035.8246    72.179161    62.508987    36.011193   -34.222449   -312263.71 
    1810    30.128801    162486.76    72.180612    72.180612    36.011917          120    15568.062    18641.895    -34589.57   -349.98797   -2295.0534   -1171.0117    72.180612    62.510244    36.011917   -126.53768   -312263.86 
    1820    30.096589    162495.39     72.18189     72.18189    36.012554          120    15598.792    18636.087   -34947.279   -275.41615   -2271.8028   -1175.3117     72.18189    62.511351    36.012554   -237.46667   -312264.12 
    1830     29.94247    162502.35    72.182919     72.18292    36.013068          120    15603.826    18440.082   -35179.615   -234.22244   -2391.4108   -985.87416    72.182919    62.512242    36.013068   -378.56874   -312264.25 
    1840    29.937977    162507.07    72.183619    72.183619    36.013417          120     15660.89    18100.744   -35060.493    -128.4973    -2372.592   -791.49827    72.183619    62.512848    36.013417   -432.95297   -312264.75 
    1850    29.952519    162509.39    72.183962    72.183962    36.013588          120    15817.997    17992.344   -35102.133   -275.21638   -2179.1481   -745.37388    72.183962    62.513145    36.013588   -430.59734   -312265.34 
    1860    29.808447    162509.46    72.183972    72.183973    36.013593          120    15884.391    18121.053   -34999.079   -488.34365    -2265.902   -827.56486    72.183972    62.513154    36.013593   -331.21161   -312265.84 
    1870    29.605466    162507.87    72.183737    72.183738    36.013476          120      15811.6    18264.572   -34730.357   -471.02444   -2258.3649   -981.82169    72.183737    62.512951    36.013476    -218.0614   -312266.08 
    1880     29.75045    162505.23    72.183345    72.183346    36.013281          120    15549.736    18315.454   -34508.465   -359.36709   -2104.9496   -1056.8362    72.183345    62.512611    36.013281   -214.42498   -312266.81 
    1890    29.483239    162501.64    72.182814    72.182815    36.013016          120    15495.406     18341.05   -34535.488   -358.87509   -1863.5441   -1133.6168    72.182814    62.512151    36.013016    -233.0109    -312266.6 
    1900    29.024468    162496.98    72.182125    72.182125    36.012672          120     15475.04    18350.375   -34970.597   -363.21753   -2013.1815   -1066.0594    72.182125    62.511554    36.012672   -381.72749   -312266.11 
    1910    28.855787    162490.71    72.181196    72.181197    36.012208          120    15371.554    18338.749   -34934.918   -281.86869   -2291.0162   -1087.2218    72.181196     62.51075    36.012208   -408.20486   -312266.37 
    1920    28.975962    162482.77    72.180021    72.180021    36.011622          120    15269.543    18417.602   -34635.982    -237.1761   -2382.6985   -1230.0011    72.180021    62.509732    36.011622   -316.27922    -312266.8 
    1930    29.162003    162473.67    72.178673    72.178674     36.01095          120    15467.247    18538.055   -34615.819   -245.26966   -2532.7743   -1188.8007    72.178673    62.508565     36.01095   -203.50574   -312267.42 
    1940    29.201895    162464.01    72.177242    72.177242    36.010235          120    15648.676    18590.118   -34663.784   -261.06811   -2669.3091   -1247.1745    72.177242    62.507325    36.010235   -141.66325   -312268.16 
    1950    29.014707    162454.06    72.175768    72.175769      36.0095          120    15554.334    18387.155   -34614.539   -147.45413   -2757.3435   -1344.0593    72.175768     62.50605      36.0095    -224.3503   -312267.97 
    1960    28.887939    162443.51    72.174206    72.174206    36.008721          120    15582.042    18316.825   -34776.468    -105.8204   -2654.1157    -1516.507    72.174206    62.504696    36.008721   -292.53378   -312268.11 
    1970    28.680499    162432.13     72.17252    72.172521     36.00788          120    15829.866    18278.918   -34629.095   -127.40017   -2451.3827   -1464.0832     72.17252    62.503237     36.00788     -173.437   -312268.29 
    1980    28.640357    162420.48    72.170795    72.170795    36.007019          120    15893.543    18342.459   -34300.279    -123.3235    -2297.825   -1405.4759    72.170795    62.501742    36.007019     -21.4255   -312268.42 
    1990     28.85566    162409.37    72.169149     72.16915    36.006198          120    15991.884    18677.163   -34087.699   -151.87868   -2216.8331   -1296.8491    72.169149    62.500317    36.006198    193.78265   -312269.08 
    2000    28.858784     162399.8    72.167732    72.167733    36.005491          120    16170.977    18863.095   -33804.486   -208.11091   -2262.8273   -1292.4079    72.167732     62.49909    36.005491    409.86201   -312269.15 
    2010    28.723188    162392.83      72.1667      72.1667    36.004976          120    16557.036    19143.233   -33679.103   -195.88334   -2228.2652   -1457.4753      72.1667    62.498196    36.004976    673.72194   -312268.94 
    2020    28.910782    162389.47    72.166202    72.166202    36.004728          120    16651.895    19067.374   -33736.362   -217.28561   -2379.8214   -1379.3307    72.166202    62.497765    36.004728    660.96907   -312269.25 
    2030    28.873877     162389.5    72.166206    72.166206     36.00473          120    16391.327    18662.331   -33758.583   -331.46141    -2487.636   -1265.9341    72.166206    62.497768     36.00473    431.69147   -312269.17 
    2040    28.908991    162391.72    72.166536    72.166536    36.004894          120    16287.292    18483.869   -33841.598   -377.84434    -2571.102   -1154.5171    72.166536    62.498054    36.004894    309.85417   -312269.01 
    2050    29.303928    162395.47    72.167091    72.167092    36.005171          120     16251.26    18689.795   -33813.606   -378.73453   -2746.2448   -1112.1839    72.167091    62.498535    36.005171     375.8164   -312269.73 
    2060    29.211067     162400.9    72.167895    72.167895    36.005572          120    16190.325    18827.603   -33790.594    -281.6661   -2706.6294   -1209.8401    72.167895    62.499231    36.005572    409.11122   -312269.28 
    2070     29.30058    162408.08    72.168959    72.168959    36.006103          120    16203.149    18903.574   -33906.432   -183.64017   -2594.7577   -1377.4644    72.168959    62.500152    36.006103     400.0973   -312269.15 
    2080    29.390905    162416.83    72.170254    72.170255    36.006749          120    16000.442    18813.616   -34064.175   -207.96368   -2572.7221   -1473.6937    72.170254    62.501274    36.006749    249.96096   -312268.84 
    2090    29.289963    162426.36    72.171666    72.171666    36.007454          120    16040.923    18544.313   -34330.122   -153.70556    -2554.794   -1479.8437    72.171666    62.502497    36.007454    85.037962   -312268.37 
    2100    28.997695    162435.82    72.173068    72.173068    36.008153          120     15924.93    18267.757   -34433.631   -13.387765   -2491.1337   -1388.9648    72.173068    62.503711    36.008153   -80.314764   -312267.38 
    2110    28.964393    162444.35     72.17433    72.174331    36.008783          120     15804.39    18049.951   -34733.883    -100.9523   -2513.6167   -1161.9882     72.17433    62.504804    36.008783   -293.18052   -312267.29 
    2120    29.526143    162451.07    72.175326    72.175326    36.009279          120    15881.739    18073.055   -34782.878   -321.66496   -2488.0377   -1028.9462    72.175326    62.505666    36.009279   -276.02804   -312268.03 
    2130    29.864708    162456.07    72.176066    72.176066    36.009649          120    15864.874    18169.961    -34644.27   -460.03975   -2465.2709   -918.22161    72.176066    62.506307    36.009649    -203.1449   -312268.08 
    2140    29.800247    162459.84    72.176624    72.176625    36.009927          120    15940.368    18283.057   -34319.866   -361.16078   -2608.6486   -764.91717    72.176624    62.506791    36.009927   -32.147159   -312267.41 
    2150    30.186362     162463.2    72.177122    72.177123    36.010176          120    16030.217    18375.638   -34247.993   -190.16968   -2719.0819   -898.21283    72.177122    62.507222    36.010176    52.620705   -312267.83 
    2160    30.258108    162466.66    72.177635    72.177635    36.010432          120    16122.142    18404.051   -34062.961    60.697615   -2701.6018   -1139.8677    72.177635    62.507666    36.010432    154.41039   -312267.37 
    2170    30.433362    162470.73    72.178237    72.178238    36.010732          120    16216.594    18550.786   -33943.515    141.90499   -2773.1545   -1275.1988    72.178237    62.508188    36.010732    274.62149   -312267.36 
    2180    30.360671     162475.9    72.179002    72.179003    36.011114          120    16399.435    18483.118   -34107.543    153.97239   -2840.8034   -1288.8824    72.179002     62.50885    36.011114    258.33682   -312266.65 
    2190    30.651043    162482.07    72.179917    72.179918     36.01157          120    16387.668    18384.916   -34200.805   -25.160534   -2901.8424   -1381.3326    72.179917    62.509642     36.01157    190.59308    -312266.9 
    2200    30.425875    162488.83    72.180918    72.180918    36.012069          120    16274.614    18289.942   -34474.684   -174.42005   -2951.7927   -1277.2901    72.180918    62.510509    36.012069     29.95724   -312266.28 
    2210    30.513726    162495.42    72.181894    72.181894    36.012557          120     16129.84    18146.163   -34554.982    -204.7529   -2872.7654   -1096.4345    72.181894    62.511354    36.012557   -92.992896   -312265.81 
    2220    30.776196    162501.21     72.18275    72.182751    36.012984          120    15941.644    18119.018    -34708.17   -191.18899   -2727.7974   -1066.7804     72.18275    62.512096    36.012984   -215.83577   -312265.73 
    2230    30.996853    162505.63    72.183405    72.183406    36.013311          120    16035.097    17987.465   -34926.797   -13.186535   -2471.8998   -1074.8094    72.183405    62.512663    36.013311    -301.4119   -312265.82 
    2240    31.163352    162508.34    72.183806    72.183807    36.013511          120    16154.378    17895.428   -35046.101    40.661488   -2351.6563   -1086.2545    72.183806    62.513011    36.013511   -332.09812   -312265.86 
    2250    30.897929    162509.29    72.183947    72.183948    36.013581          120    16134.574    18032.406   -34940.605   -35.106597   -2495.4111    -1123.362    72.183947    62.513132    36.013581   -257.87477   -312265.14 
    2260     30.84821    162508.89    72.183888    72.183888    36.013551          120     16208.57    18248.185   -34967.145   -221.08116   -2595.0895   -1206.6942    72.183888    62.513081    36.013551   -170.13021   -312264.82 
[...]
   99200    29.822728    162570.17     72.19296    72.192961    36.018078          120     16658.52    18791.867   -34541.931   -299.51101   -1876.3036   -959.07422     72.19296    62.520938    36.018078    302.81859   -312273.19 
   99210    30.423102    162570.32    72.192982    72.192982    36.018088          120    16572.664    18737.511   -34715.501   -437.26578    -1865.351   -962.62812    72.192982    62.520957    36.018088    198.22471   -312274.45 
   99220    29.870881    162571.47    72.193152    72.193152    36.018173          120    16482.572    18600.535     -34885.9   -357.00699    -1940.257   -955.14732    72.193152    62.521104    36.018173    65.735528   -312273.12 
   99230    30.107679    162572.98    72.193375    72.193376    36.018285          120    16393.126    18635.486   -34944.548   -153.89226   -2002.5629   -990.73557    72.193375    62.521298    36.018285    28.021156   -312273.46 
   99240    30.130306    162574.61    72.193617    72.193618    36.018405          120    16298.239    18656.098   -34976.855   -248.37514   -2092.4109    -935.2969    72.193617    62.521507    36.018405    -7.505915   -312273.61 
   99250    29.850306    162576.17    72.193848    72.193849    36.018521          120    16219.002    18633.258   -35026.061   -265.47866   -2296.5323   -1034.2442    72.193848    62.521707    36.018521   -57.933658   -312273.51 
   99260    30.338983    162577.52    72.194049    72.194049    36.018621          120    16486.263     18611.63   -34868.645   -212.98572   -2272.1152   -1101.7472    72.194049    62.521881    36.018621    76.416108   -312274.24 
   99270    29.836837    162579.21    72.194299    72.194299    36.018745          120    16596.879    18561.335   -34689.328   -281.20342   -2327.0856   -960.15235    72.194299    62.522097    36.018745    156.29549   -312273.41 
   99280    30.150302    162581.69    72.194665    72.194666    36.018928          120    16515.058    18741.665   -34671.423   -284.68124   -2022.6785   -972.51096    72.194665    62.522415    36.018928    195.10023   -312274.05 
   99290    30.002182    162585.05    72.195163    72.195163    36.019177          120     16442.46    18520.433    -34788.16   -182.40044   -1926.6108   -1157.3168    72.195163    62.522846    36.019177    58.244107   -312273.75 
   99300     30.39091    162588.75    72.195709     72.19571    36.019449          120    16432.469    18408.978   -34858.972    57.051266   -1998.1371   -1059.5847    72.195709    62.523319    36.019449   -5.8414157   -312274.16 
   99310    30.038015    162592.35    72.196243    72.196243    36.019715          120    16108.108    18609.956    -35015.04   -104.28508   -2244.3029   -955.54464    72.196243    62.523781    36.019715   -98.992133   -312273.57 
   99320    29.934121    162595.48    72.196706    72.196706    36.019946          120    16146.931     18622.65    -34979.04   -219.42462   -2246.8724   -1136.8167    72.196706    62.524182    36.019946   -69.819322   -312273.39 
   99330    30.279635    162598.17    72.197104    72.197105    36.020145          120    16059.229    18493.487   -34843.106   -399.55526   -2308.0357   -1161.1347    72.197104    62.524527    36.020145   -96.796518   -312274.22 
   99340     30.04166    162600.39    72.197433    72.197433    36.020309          120    15928.896    18546.385    -34659.72   -315.42163   -2468.9367   -1107.3715    72.197433    62.524812    36.020309    -61.47983   -312273.68 
   99350    29.873967    162602.22    72.197703    72.197704    36.020444          120    15902.711    18285.554     -34632.9   -116.25897    -2456.543   -1191.1956    72.197703    62.525046    36.020444   -148.21162   -312273.39 
   99360    29.869531     162603.2    72.197849    72.197849    36.020517          120    15933.675    17896.539   -34891.945     28.21222   -2304.3908   -1229.7346    72.197849    62.525172    36.020517   -353.90996    -312273.4 
   99370    30.006993     162602.4     72.19773     72.19773    36.020457          120    15857.271    17916.596   -35129.605   -47.469173   -2095.6299   -1031.4893     72.19773    62.525069    36.020457   -451.91279   -312273.78 
   99380    30.259125    162599.32    72.197274    72.197274     36.02023          120     15788.89     18058.02   -35219.968    16.164852   -2154.7497   -1125.5349    72.197274    62.524674     36.02023   -457.68597   -312274.22 
   99390    29.809617       162594    72.196487    72.196488    36.019837          120    15951.065    18197.022   -34959.923   -163.47952   -2192.8487   -922.27404    72.196487    62.523993    36.019837   -270.61174   -312273.35 
   99400    29.793983    162587.37    72.195506    72.195506    36.019348          120    16066.784    18555.359    -34610.05   -344.63892    -2225.611   -965.83402    72.195506    62.523142    36.019348     4.030928   -312273.39 
   99410    30.360069    162580.69    72.194518    72.194518    36.018855          120    16282.813    18628.773   -34610.056    -240.6787   -2004.3979   -1052.8318    72.194518    62.522287    36.018855    100.50971   -312274.22 
   99420    29.902238     162574.5    72.193601    72.193602    36.018398          120    16260.558    18520.221   -34798.508   -197.98761   -2121.6449    -919.9501    72.193601    62.521493    36.018398    -5.909959   -312273.38 
   99430      29.9166    162568.24    72.192673    72.192674    36.017935          120    16210.267    18247.043   -35274.672   -151.55101   -2165.9061   -850.40935    72.192673     62.52069    36.017935   -272.45399   -312273.68 
   99440    29.987753    162560.72    72.191561    72.191562     36.01738          120    16163.443     18260.13   -35283.915   -159.34297   -2040.4788   -1095.3335    72.191561    62.519727     36.01738   -286.78066   -312273.84 
   99450     30.35621    162551.87    72.190251    72.190251    36.016726          120    16179.944    18590.777   -35034.956   -27.818818   -2444.5042   -1182.3888    72.190251    62.518592    36.016726   -88.078303   -312274.52 
   99460    29.904161     162542.7    72.188894    72.188895    36.016049          120    16460.176    18906.601    -34581.16   -86.004381   -2516.6323   -845.70003    72.188894    62.517417    36.016049    261.87261    -312273.7 
   99470    29.857227    162534.93    72.187743    72.187743    36.015475          120    16652.749    19128.105   -34112.415   -123.05807   -2447.9534   -967.08143    72.187743     62.51642    36.015475    556.14606   -312273.89 
   99480     30.17089    162529.94    72.187004    72.187004    36.015106          120    16847.794    19031.409   -34072.912   -192.29393   -2262.9833   -953.56662    72.187004     62.51578    36.015106    602.09729   -312274.19 
   99490    29.968884    162528.06    72.186726    72.186727    36.014967          120    16913.632    19070.411   -34095.039   -245.94948   -2127.5544   -797.36527    72.186726    62.515539    36.014967    629.66822   -312273.75 
   99500    30.011092    162529.38    72.186922    72.186923    36.015065          120    16800.751    19125.102   -34185.796   -80.391006   -2124.7068   -800.16088    72.186922    62.515709    36.015065    580.01915   -312274.25 
   99510    29.975692    162533.69    72.187559    72.187559    36.015383          120     16844.85    19102.863   -34361.015   -377.37194    -2064.826   -767.91498    72.187559     62.51626    36.015383     528.8994   -312274.27 
   99520    29.914067    162540.68    72.188595    72.188595      36.0159          120    16969.424     18883.78   -34398.398   -319.94994   -2076.5491   -749.29477    72.188595    62.517158      36.0159    484.93524   -312274.14 
   99530    29.900678    162550.04    72.189979     72.18998    36.016591          120    16755.472    18659.215   -34513.175      -175.05   -2041.6647   -763.88206    72.189979    62.518357    36.016591    300.50386   -312274.14 
   99540    29.881904     162560.9    72.191587    72.191588    36.017393          120    16469.959    18576.569   -34555.376   -326.75283   -2132.6441   -838.20521    72.191587    62.519749    36.017393    163.71744   -312274.09 
   99550    29.886191    162572.57    72.193315    72.193315    36.018254          120    16277.002    18465.007    -34451.05   -212.35585   -2271.6342   -977.37937    72.193315    62.521245    36.018254    96.986245   -312274.07 
   99560     29.77395     162584.6    72.195095    72.195096    36.019143          120    16026.003    18467.864       -34667   -195.38251   -2307.7165   -888.38667    72.195095    62.522787    36.019143   -57.710996   -312273.86 
   99570    29.983955    162596.22    72.196816    72.196817    36.020002          120    16006.235     18287.91   -34896.019   -122.17416   -2061.1115    -989.9503    72.196816    62.524278    36.020002   -200.62469   -312274.02 
   99580    29.984125     162606.8    72.198381    72.198382    36.020782          120    16096.555    18111.515   -34933.584    -127.4154   -2063.2322   -1009.1144    72.198381    62.525633    36.020782   -241.83797   -312273.67 
   99590      29.9911    162616.02    72.199746    72.199747    36.021463          120     15767.96    18050.316   -34769.113   -367.02346   -2045.6554   -953.36154    72.199746    62.526815    36.021463   -316.94549   -312273.74 
   99600      30.0265    162623.51    72.200855    72.200855    36.022016          120    15605.338    18018.136   -34972.179   -286.39506   -1969.0705   -1458.8179    72.200855    62.527775    36.022016   -449.56834   -312273.63 
   99610    29.663588    162628.71    72.201624    72.201624      36.0224          120    15649.717    18175.862   -35176.825   -452.19539   -2221.1898   -1417.2637    72.201624    62.528441      36.0224    -450.4154    -312273.2 
   99620     29.99425    162631.59    72.202051    72.202051    36.022613          120    15897.967    18151.884    -35075.11   -536.01274   -2240.7003    -1238.658    72.202051    62.528811    36.022613   -341.75289   -312273.72 
   99630    30.159265    162632.69    72.202213    72.202213    36.022694          120    16088.485    18261.828   -35124.657   -207.36009   -2260.7979   -1075.8491    72.202213    62.528951    36.022694   -258.11485   -312274.03 
   99640    29.957881    162632.43    72.202174    72.202175    36.022675          120    16055.324    18328.072   -35040.222   -183.82273   -2418.4508   -1004.6018    72.202174    62.528918    36.022675   -218.94189   -312273.62 
   99650    30.009018    162631.02    72.201967    72.201967    36.022571          120     16020.45    18297.136   -34970.642   -204.29424   -2094.6643   -940.33461    72.201967    62.528738    36.022571   -217.68535   -312273.77 
   99660    29.900467     162628.5    72.201593    72.201594    36.022385          120    15882.285    18363.843   -34888.439   -106.63873   -2005.5894   -932.56638    72.201593    62.528414    36.022385    -214.1039   -312273.54 
   99670    29.838005    162624.96    72.201069    72.201069    36.022123          120    16080.735    18475.155   -34814.197   -188.56507    -2141.833   -1059.8697    72.201069     62.52796    36.022123   -86.102544   -312273.38 
   99680    30.026295     162620.9    72.200469    72.200469    36.021824          120    16115.205    18357.855   -34937.886   -93.663936   -2052.2916   -959.25101    72.200469    62.527441    36.021824   -154.94194   -312273.82 
   99690    29.904863    162616.06    72.199753    72.199753    36.021467          120    15927.225    18343.636   -35029.015   -93.891295   -1904.2936   -1074.4336    72.199753    62.526821    36.021467   -252.71764   -312273.57 
   99700    30.137307    162610.03    72.198859     72.19886    36.021021          120    16171.856    18303.114   -35119.298   -244.72782   -1936.1095   -1269.2848    72.198859    62.526047    36.021021   -214.77608   -312273.91 
   99710    29.923173    162602.89    72.197802    72.197803    36.020494          120    16253.162    18363.324    -35351.37   -196.02575   -2196.4429    -1185.652    72.197802    62.525132    36.020494   -244.96131   -312273.77 
   99720    30.251779    162594.58    72.196573    72.196573     36.01988          120    16065.172    18398.046   -35091.065   -159.72433   -2185.6187   -1034.0968    72.196573    62.524067     36.01988   -209.28238    -312274.4 
   99730    29.771334    162585.28    72.195196    72.195197    36.019193          120    16057.698     18436.49   -34773.149   -256.79597   -1970.6871   -1001.3437    72.195196    62.522875    36.019193   -92.987205   -312273.23 
   99740    29.875629    162575.68    72.193775    72.193775    36.018484          120    16411.159    18559.031   -34355.127   -372.30251   -1920.2707    -1121.594    72.193775    62.521644    36.018484     205.0213    -312273.3 
   99750    29.871212    162567.11    72.192506    72.192507    36.017851          120    16595.727    18630.349   -34201.619   -277.44366   -1942.7253   -1208.1507    72.192506    62.520545    36.017851    341.48544   -312273.42 
   99760    30.115558    162560.29    72.191498    72.191499    36.017348          120    16466.712    18811.092   -34169.156   -195.07913   -2066.9601   -1275.4477    72.191498    62.519672    36.017348    369.54965   -312273.97 
   99770    30.162171    162555.36    72.190768    72.190768    36.016984          120      16537.4     18762.42    -34496.02   -323.43886   -2329.1043   -1179.9132    72.190768     62.51904    36.016984    267.93354      -312274 
   99780    30.054249    162551.88    72.190252    72.190253    36.016727          120    16583.368    18729.577   -34619.448   -222.61141   -2146.6681   -1073.8367    72.190252    62.518593    36.016727    231.16535   -312273.67 
   99790     29.97387    162549.62    72.189918    72.189919     36.01656          120    16659.086    18668.316   -34593.059   -248.21961   -1919.2142    -1166.191    72.189918    62.518304     36.01656    244.78127   -312273.54 
   99800     30.00938    162548.53    72.189756    72.189756    36.016479          120    16411.429     18678.08   -34758.254   -321.11803   -2117.6846    -1073.727    72.189756    62.518163    36.016479    110.41828   -312273.71 
   99810    29.913444    162548.16    72.189702    72.189702    36.016452          120    16522.017    18965.304   -34735.893   -393.24541   -2045.4714   -1048.5893    72.189702    62.518116    36.016452    250.47582   -312273.61 
   99820    29.879525    162549.05    72.189834    72.189835    36.016518          120    16595.829    18898.342   -34400.644    -295.5191   -2074.8812   -832.23728    72.189834    62.518231    36.016518    364.50861   -312273.65 
   99830    30.080394    162551.81    72.190242    72.190243    36.016722          120    16708.841    18708.455    -34058.37   -88.855146   -2243.5333   -938.38945    72.190242    62.518584    36.016722    452.97527   -312273.99 
   99840    29.972771    162556.78    72.190978    72.190978    36.017089          120      16811.9    18667.289   -34395.565   -91.710197     -2237.25   -1144.6164    72.190978    62.519221    36.017089     361.2081   -312273.73 
   99850    30.239233    162563.58    72.191984    72.191985    36.017591          120    16580.331    18790.765   -34505.168   -46.127683   -2410.1166   -1144.3829    72.191984    62.520093    36.017591    288.64264   -312273.93 
   99860    30.058757    162571.78    72.193198    72.193199    36.018196          120    16492.614    18692.415    -34704.06   -247.69346   -2437.2116   -1211.8985    72.193198    62.521144    36.018196    160.32334    -312273.6 
   99870    29.748456    162580.65    72.194512    72.194512    36.018852          120    16074.935    18472.052   -34910.531   -378.24237   -2381.8296   -935.41599    72.194512    62.522282    36.018852   -121.18131   -312272.88 
   99880    30.128351    162588.94    72.195738    72.195738    36.019463          120     16007.19    18362.147    -34960.46    -201.8931   -2220.0173   -1159.2276    72.195738    62.523344    36.019463   -197.04098   -312273.66 
   99890    29.993173    162596.22    72.196816    72.196816    36.020001          120    16205.547    18386.161   -34885.567   -153.43564   -2032.2473   -1368.5512    72.196816    62.524277    36.020001   -97.952957   -312273.38 
   99900    30.183043    162602.91    72.197806    72.197806    36.020495          120    16218.152     18518.71   -34817.119   -272.17063    -1937.066   -1198.3274    72.197806    62.525134    36.020495   -26.752105    -312273.7 
   99910    30.105419     162609.4    72.198767    72.198767    36.020975          120    16180.285     18507.79   -34614.378    -210.5893   -1893.7193     -842.486    72.198767    62.525967    36.020975    24.565802   -312273.58 
   99920    30.216202    162615.93    72.199733    72.199734    36.021457          120    16141.032    18522.788   -34766.721   -358.09781   -1981.3449   -902.26191    72.199733    62.526804    36.021457   -34.300419   -312273.87 
   99930    30.114434    162622.12    72.200649     72.20065    36.021914          120    15880.117     18357.19   -35145.473   -327.44505   -2166.0543   -905.37515    72.200649    62.527597    36.021914   -302.72195   -312273.56 
   99940    30.025531    162626.75    72.201334    72.201335    36.022256          120    15589.659    18137.084   -35203.261   -226.36606   -2267.7706   -903.63472    72.201334     62.52819    36.022256   -492.17302   -312273.36 
   99950    30.242229    162628.81    72.201639     72.20164    36.022408          120    15597.375    17984.636   -35447.222   -117.40445   -2245.4533    -976.3612    72.201639    62.528454    36.022408   -621.73684   -312273.79 
   99960    29.878622    162627.85    72.201497    72.201498    36.022337          120    16151.628     17967.99   -35236.232   -117.38515   -2259.9338   -932.51144    72.201497    62.528332    36.022337   -372.20461   -312273.07 
   99970    29.979809    162624.96    72.201069     72.20107    36.022123          120    16099.222     18145.91   -34650.659   -101.92272   -2153.1555   -1227.5621    72.201069    62.527961    36.022123   -135.17581   -312273.45 
   99980    29.974706    162621.32     72.20053     72.20053    36.021854          120    16044.047    18210.409   -34514.269   -271.09169   -2054.4368    -1174.537     72.20053    62.527494    36.021854    -86.60432   -312273.31 
   99990    30.171434    162617.23    72.199926    72.199926    36.021553          120     16161.88    18224.914   -34677.858   -135.01177   -1918.0125   -1250.6028    72.199926     62.52697    36.021553   -97.021181   -312273.72 
  100000    30.001901    162612.67     72.19925     72.19925    36.021216          120    16115.535    18407.318   -34910.089   -104.72646   -1793.6764   -1280.0059     72.19925    62.526385    36.021216   -129.07869   -312273.31 
Loop time of 37359 on 1 procs for 100000 steps with 14848 atoms

Performance: 0.231 ns/day, 103.775 hours/ns, 2.677 timesteps/s
93.1% CPU use with 1 MPI tasks x no OpenMP threads

MPI task timing breakdown:
Section |  min time  |  avg time  |  max time  |%varavg| %total
---------------------------------------------------------------
Pair    | 34118      | 34118      | 34118      |   0.0 | 91.32
Bond    | 0.056922   | 0.056922   | 0.056922   |   0.0 |  0.00
Kspace  | 1448.3     | 1448.3     | 1448.3     |   0.0 |  3.88
Neigh   | 905.61     | 905.61     | 905.61     |   0.0 |  2.42
Comm    | 37.181     | 37.181     | 37.181     |   0.0 |  0.10
Output  | 1.3496     | 1.3496     | 1.3496     |   0.0 |  0.00
Modify  | 833.82     | 833.82     | 833.82     |   0.0 |  2.23
Other   |            | 14.86      |            |       |  0.04

Nlocal:    14848 ave 14848 max 14848 min
Histogram: 1 0 0 0 0 0 0 0 0 0
Nghost:    46899 ave 46899 max 46899 min
Histogram: 1 0 0 0 0 0 0 0 0 0
Neighs:    1.01197e+07 ave 1.01197e+07 max 1.01197e+07 min
Histogram: 1 0 0 0 0 0 0 0 0 0

Total # of neighbors = 10119732
Ave neighs/atom = 681.555
Ave special neighs/atom = 0
Neighbor list builds = 2696
Dangerous builds = 0
 
All done!
Total wall time: 10:29:05
