LAMMPS (16 Mar 2018)
Reading data file ...
  triclinic box = (0 0 0) to (9.208 7.97436 18.376) with tilt (-4.604 0 0)
  1 by 1 by 1 MPI processor grid
  reading atoms ...
  116 atoms
Finding 1-2 1-3 1-4 neighbors ...
  special bond factors lj:   0          0          0         
  special bond factors coul: 0          0          0         
  0 = max # of 1-2 neighbors
  0 = max # of 1-3 neighbors
  0 = max # of 1-4 neighbors
  1 = max # of special neighbors
Replicating atoms ...
  triclinic box = (0 0 0) to (73.664 63.7949 36.752) with tilt (-36.832 0 0)
  1 by 1 by 1 MPI processor grid
  14848 atoms
Finding 1-2 1-3 1-4 neighbors ...
  special bond factors lj:   0          0          0         
  special bond factors coul: 0          0          0         
  0 = max # of 1-2 neighbors
  0 = max # of 1-3 neighbors
  0 = max # of 1-4 neighbors
  1 = max # of special neighbors
  Time spent = 0.00347781 secs
PPPM initialization ...
WARNING: System is not charge neutral, net charge = -0.2048 (../kspace.cpp:302)
  using 12-bit tables for long-range coulomb (../kspace.cpp:321)
  G vector (1/distance) = 0.201681
  grid = 36 50 24
  stencil order = 5
  estimated absolute RMS force accuracy = 0.00105653
  estimated relative force accuracy = 7.33721e-05
  using double precision FFTs
  3d grid and FFT values/proc = 65395 43200
Neighbor list info ...
  update every 1 steps, delay 0 steps, check yes
  max neighbors/atom: 2000, page size: 100000
  master list distance cutoff = 15.3
  ghost atom cutoff = 15.3
  binsize = 7.65, bins = 15 9 5
  3 neighbor lists, perpetual/occasional/extra = 3 0 0
  (1) pair morse, perpetual
      attributes: half, newton on
      pair build: half/bin/newton/tri
      stencil: half/bin/3d/newton/tri
      bin: standard
  (2) pair buck, perpetual, copy from (1)
      attributes: half, newton on
      pair build: copy
      stencil: none
      bin: none
  (3) pair lj/cut/coul/long, perpetual, copy from (1)
      attributes: half, newton on
      pair build: copy
      stencil: none
      bin: none
Setting up Verlet run ...
  Unit style    : metal
  Current step  : 0
  Time step     : 0.001
Per MPI rank memory allocation (min/avg/max) = 145.7 | 145.7 | 145.7 Mbytes
Step Temp Volume Cella Cellb Cellc CellGamma Pxx Pyy Pzz Pxy Pxz Pyz Lx Ly Lz Press PotEng 
       0           60    172711.88       73.664    73.664001       36.752          120   -210811.31   -210814.83   -281803.29    6.0239405   -1.5296548     2.039124       73.664    63.794896       36.752   -234476.47   -309191.56 
      10    244.84699    172372.46    73.615712    73.615713    36.727909          120   -213660.14   -213723.62   -261195.89    60.150984   -1.4056431    -80.77405    73.615712    63.753078    36.727909   -229526.55   -309629.53 
      20    482.07672    171408.45    73.478221    73.478222    36.659312          120   -210438.59   -210191.87    -197711.7    20.692788   -130.92186   -177.65336    73.478221    63.634007    36.659312   -206114.05    -310247.2 
      30    406.68015    170107.73    73.291888    73.291889    36.566348          120   -189544.64   -189118.32   -110160.36    -156.0113   -458.61987   -225.23857    73.291888    63.472638    36.566348    -162941.1   -310305.91 
      40    160.57021    168914.36    73.120095    73.120096    36.480638          120   -160209.17   -159905.36   -31919.951   -336.52783   -861.93445   -273.71456    73.120095    63.323861    36.480638   -117344.82   -309967.15 
      50    219.62738    167976.93    72.984579    72.984579    36.413027          120   -127564.13   -127367.62    298.60665   -374.16151   -1043.8083    -454.3295    72.984579      63.2065    36.413027   -84877.715   -310144.36 
      60    542.23871    167197.05    72.871453    72.871454    36.356587          120   -94763.919   -94517.259    -34215.74   -518.22381   -1877.9864   -390.01624    72.871453    63.108531    36.356587   -74498.973   -310832.99 
      70     731.0854    166481.36    72.767329    72.767329    36.304638          120   -60678.257   -60218.839   -93410.443    -746.8332   -2504.3551   -228.17455    72.767329    63.018356    36.304638   -71435.846   -311324.33 
      80    583.78804    165799.42    72.667836    72.667837       36.255          120    -29046.24     -28848.2   -127024.27   -1212.3973   -2824.9371    96.624836    72.667836    62.932193       36.255   -61639.569   -311168.22 
      90    335.08995     165165.4    72.575091    72.575092    36.208728          120   -9986.5689   -10140.391   -131620.87   -1558.3434   -3444.8383    471.65248    72.575091    62.851873    36.208728   -50582.611   -310772.95 
     100    391.74198    164601.29    72.492371    72.492371    36.167458          120    8861.5744    9330.7682   -106619.27   -1575.9021   -3536.3119    488.04237    72.492371    62.780235    36.167458   -29475.642   -310940.71 
     110    535.38219    164137.22    72.424179     72.42418    36.133436          120    25471.804    26374.849   -62919.366   -1566.4304   -3296.2304    302.74886    72.424179     62.72118    36.133436   -3690.9045   -311294.09 
     120    482.36575    163797.17     72.37413    72.374131    36.108466          120     29568.26    30539.847   -15275.282   -1564.7804   -3512.5839    73.104668     72.37413    62.677836    36.108466    14944.275   -311276.26 
     130    371.91426    163581.21    72.342308    72.342309     36.09259          120    22143.506    23554.617    18784.451   -1695.9429   -3859.0691   -428.00713    72.342308    62.650278     36.09259    21494.191   -311129.19 
     140    362.62788    163466.65    72.325417    72.325418    36.084162          120    14646.967    15657.359    21739.544    -1627.332   -3753.0321   -299.79547    72.325417    62.635649    36.084162    17347.957    -311163.1 
     150    433.42125    163415.85    72.317925    72.317925    36.080424          120    7638.1167    8812.7704   -10731.828   -1651.7375    -3460.587   -12.175265    72.317925    62.629161    36.080424     1906.353   -311360.78 
     160    457.87601    163378.95    72.312481    72.312482    36.077708          120   -1251.9848    751.25503   -50355.955   -1685.2448    -3416.653    289.06992    72.312481    62.624446    36.077708   -16952.228   -311483.08 
     170    390.88105    163311.07    72.302465    72.302466    36.072711          120   -4450.7928   -1810.7337   -75879.904   -1456.6693   -3655.7561    227.90849    72.302465    62.615772    36.072711   -27380.477   -311426.75 
     180    325.94448    163194.23    72.285218    72.285218    36.064106          120    910.97077    3828.7096   -84362.047     -1142.05   -3400.4572    2.5644045    72.285218    62.600835    36.064106   -26540.789   -311360.27 
     190     334.2186    163038.61    72.262233    72.262234    36.052639          120     7583.216    10405.865   -72811.632   -810.90887   -2848.8875    263.82417    72.262233     62.58093    36.052639   -18274.184   -311427.61 
     200    363.42207    162869.54    72.237247    72.237247    36.040173          120    11386.296     14122.91   -46634.995   -836.15254   -2342.9655    68.015258    72.237247    62.559291    36.040173   -7041.9298   -311540.97 
     210    340.91524    162714.63    72.214337    72.214337    36.028743          120     14034.46    16884.854   -21519.176   -794.69478   -2520.5233    210.69699    72.214337    62.539451    36.028743    3133.3794   -311555.75 
     220    300.68241    162593.95     72.19648     72.19648    36.019834          120    15976.377     18243.39   -7718.8745    -592.7205   -3058.3795    245.62198     72.19648    62.523986    36.019834    8833.6307   -311528.53 
     230    292.14922    162513.64    72.184592    72.184592    36.013903          120    16318.087    16992.958   -10347.514   -815.78819   -3533.7479   -299.74314    72.184592    62.513691    36.013903    7654.5104   -311557.02 
     240     308.6132    162463.49    72.177165    72.177166    36.010197          120    13403.728    13170.535   -25331.424   -1074.4924   -3935.4395    -231.0038    72.177165    62.507259    36.010197    414.27983   -311633.93 
     250     307.1488    162422.01    72.171022    72.171022    36.007132          120    10504.248    10109.078   -44035.359   -1025.0356   -3892.1491   -364.17546    72.171022    62.501939    36.007132   -7807.3442   -311678.96 
     260    281.06058    162369.19    72.163197    72.163198    36.003229          120    10623.265    10348.228   -57786.063   -1094.6433   -3608.9984   -469.77977    72.163197    62.495163    36.003229   -12271.523   -311674.73 
     270    257.07968    162296.34    72.152403    72.152404    35.997843          120     12392.48    12531.957   -60523.843   -1307.6094   -3305.1117   -71.361032    72.152403    62.485815    35.997843   -11866.469   -311668.88 
     280    257.43722    162207.38    72.139218    72.139218    35.991265          120    14885.851    16168.741   -51438.572   -1280.9789   -3036.3387    203.49833    72.139218    62.474396    35.991265   -6794.6599   -311707.21 
     290    258.86319    162116.28     72.12571    72.125711    35.984526          120     18313.99    20414.997   -36106.617   -1613.2983   -2932.4247    158.81574     72.12571    62.462698    35.984526    874.12329   -311748.74 
     300    249.21425    162040.37    72.114451    72.114451    35.978908          120    20511.729    22577.431   -23097.574   -1608.4228   -2818.0405   -377.71005    72.114451    62.452947    35.978908    6663.8619   -311768.31 
     310    232.74384     161990.6    72.107068    72.107068    35.975225          120    20106.564    21951.029   -15446.969   -1369.2704    -3263.582   -704.26743    72.107068    62.446553    35.975225    8870.2082   -311771.78 
     320    227.25695    161968.02    72.103717    72.103718    35.973553          120    17335.377    18978.002   -16083.283   -1221.7868   -3334.7756   -1030.0548    72.103717    62.443652    35.973553    6743.3654   -311794.26 
     330    228.18704    161964.04    72.103126    72.103127    35.973258          120    14802.671    16498.659   -24261.719   -1333.4387   -3567.7803   -1138.5147    72.103126     62.44314    35.973258    2346.5373   -311828.01 
     340    222.64977    161966.11    72.103433    72.103434    35.973411          120    14114.357    16008.474   -35558.703   -957.98391   -3687.9036   -1153.8875    72.103433    62.443405    35.973411   -1811.9574   -311849.85 
     350    209.02435    161963.82    72.103094    72.103095    35.973242          120    14239.648    16688.881   -43533.834   -1111.7452    -3023.717   -1353.3037    72.103094    62.443112    35.973242   -4201.7684   -311853.03 
     360    196.98367    161952.37    72.101394    72.101395    35.972394          120     15506.06    17842.869   -44152.346   -1440.9301    -2525.163   -1424.4034    72.101394     62.44164    35.972394    -3601.139   -311857.25 
     370    194.45528    161934.24    72.098704    72.098704    35.971052          120    17503.898    19442.395   -39145.411    -1360.721   -2289.6611   -1213.4731    72.098704     62.43931    35.971052    -733.0392   -311878.53 
     380    192.99873    161916.84    72.096121    72.096121    35.969763          120    19068.399    20574.459   -31294.372   -1314.7857   -2402.0787   -1269.3617    72.096121    62.437073    35.969763    2782.8287   -311901.87 
     390    185.95581     161908.1    72.094824    72.094825    35.969116          120    19250.202    20744.997   -24253.752   -1338.3237   -2846.7417   -927.87927    72.094824     62.43595    35.969116     5247.149   -311914.23 
     400    176.74178    161912.74    72.095513    72.095514     35.96946          120      18470.8    20421.884   -20752.139   -1485.1792   -3490.4264   -549.09662    72.095513    62.436546     35.96946    6046.8481   -311920.23 
     410    172.65456    161931.02    72.098225    72.098226    35.970813          120    18292.088    19815.401   -22762.437   -1646.1982   -3755.3902   -672.17429    72.098225    62.438895    35.970813    5115.0176   -311934.71 
     420    169.52941    161959.15    72.102401    72.102402    35.972897          120    17709.365     19155.32   -28310.774   -1864.5009   -3881.6763   -94.753617    72.102401    62.442512    35.972897    2851.3034   -311950.06 
     430    165.64992    161990.69    72.107081    72.107082    35.975231          120    16892.033    17723.347   -34905.761   -2004.9612   -4236.2163     403.2706    72.107081    62.446565    35.975231    -96.79355   -311963.62 
     440    158.03927    162018.58    72.111219    72.111219    35.977296          120    16708.673    16961.053   -39466.687    -2091.347   -3914.6402    450.72387    72.111219    62.450148    35.977296   -1932.3203   -311968.33 
     450    152.29519     162039.1    72.114263    72.114264    35.978815          120    17302.756    17534.883   -39919.606   -2189.3164   -3524.2719     216.7418    72.114263    62.452784    35.978815    -1693.989   -311975.78 
     460    149.53621    162053.53    72.116403    72.116404    35.979882          120    18478.005    18313.975   -37165.318   -1914.0248   -2796.4327   -315.79768    72.116403    62.454638    35.979882   -124.44617   -311988.58 
     470    148.29822    162066.25    72.118291    72.118291    35.980824          120    19523.096    18801.353   -32081.791   -1564.3223   -2308.7509   -201.36696    72.118291    62.456273    35.980824    2080.8863   -312003.31 
     480    143.11444    162082.56     72.12071    72.120711    35.982031          120    19854.368    18973.654   -27682.877   -1702.4549    -2595.406    24.665503     72.12071    62.458368    35.982031    3715.0483   -312010.37 
     490    137.24284    162105.92    72.124174    72.124175    35.983759          120    19357.153    19308.541   -26291.247   -1574.5525   -2710.7968     286.1846    72.124174    62.461368    35.983759    4124.8156   -312015.27 
     500    134.63513     162136.5    72.128709    72.128709    35.986022          120    18128.676    19010.684   -28053.804   -1713.0915   -3075.7839    527.02913    72.128709    62.465295    35.986022    3028.5186   -312025.77 
     510     131.9334    162171.05    72.133833    72.133833    35.988578          120    16957.045    18056.578   -31660.431   -1771.7225   -3499.0759    576.96525    72.133833    62.469732    35.988578     1117.731   -312035.42 
     520    128.53294     162204.7    72.138821    72.138822    35.991067          120    16328.747    16741.695   -35554.611     -1543.33   -3433.6721    712.61792    72.138821    62.474052    35.991067   -828.05627   -312042.89 
     530    124.58164    162233.08    72.143028    72.143029    35.993166          120    16245.441    16427.471    -38003.29    -1197.018   -3378.5682    767.70234    72.143028    62.477696    35.993166   -1776.7926   -312048.76 
     540    121.27749    162254.44    72.146194    72.146194    35.994745          120    16163.092    17036.899   -38433.285   -857.13392   -3051.4992    641.17878    72.146194    62.480437    35.994745   -1744.4312   -312055.19 
     550    118.32613    162269.59    72.148439     72.14844    35.995866          120    16041.445    17748.622   -36269.499   -1005.3705   -2572.2481    582.50607    72.148439    62.482382    35.995866   -826.47713   -312061.97 
     560    115.91596    162281.32    72.150177    72.150178    35.996733          120    16292.234    18079.436   -33172.822   -1167.4443   -2490.7638    107.58952    72.150177    62.483887    35.996733    399.61619   -312069.76 
     570    113.61253    162292.76    72.151873    72.151873    35.997579          120    16616.589    17718.164   -31186.506    -1279.544   -2601.3894   -334.90714    72.151873    62.485355    35.997579    1049.4156   -312077.33 
     580    110.47329    162305.55    72.153768    72.153769    35.998524          120    16642.541    17224.795   -30596.412   -1250.0928    -3093.325   -519.68573    72.153768    62.486997    35.998524    1090.3079   -312082.22 
     590    108.32908     162319.6     72.15585     72.15585    35.999563          120    16306.694     16423.49   -31629.992   -1324.0248   -3720.6009   -470.48366     72.15585    62.488799    35.999563    366.73053   -312088.93 
     600    106.68291    162333.13    72.157855    72.157855    36.000563          120    16151.089    15798.538   -33928.545   -1330.4487   -4165.2725   -309.91504    72.157855    62.490536    36.000563   -659.63925   -312096.65 
     610    104.12589    162343.72    72.159425    72.159425    36.001346          120    15623.818    15874.098   -36755.458   -1367.7997   -4136.2524   -563.71026    72.159425    62.491896    36.001346   -1752.5138   -312101.77 
     620    101.30755    162349.12    72.160225    72.160225    36.001745          120    15289.616    15963.297   -38241.695    -1561.972   -4135.8307   -611.77427    72.160225    62.492588    36.001745   -2329.5943   -312106.17 
     630    98.479263    162348.49     72.16013    72.160131    36.001698          120    15732.933    15952.934   -37920.131    -1755.046   -3930.1754   -505.61804     72.16013    62.492507    36.001698    -2078.088   -312109.86 
     640    96.369036    162342.93    72.159307    72.159308    36.001288          120    16238.154    16381.741   -36414.534   -1815.8535   -3186.1824   -644.17581    72.159307    62.491794    36.001288   -1264.8793   -312114.52 
     650    94.558511    162334.91     72.15812     72.15812    36.000695          120    17068.983    17453.162   -34243.284   -2032.1799     -2806.32   -528.32314     72.15812    62.490765    36.000695    92.953978   -312120.14 
     660    93.555845    162327.81    72.157068    72.157068     36.00017          120    17956.142    17886.043   -32153.989   -2026.2022   -3108.3661   -365.86694    72.157068    62.489854     36.00017    1229.3984   -312126.85 
     670    90.616371     162324.2    72.156532    72.156532    35.999903          120     17898.61    17873.544    -31208.24   -1772.5795   -3435.3321   -274.14823    72.156532     62.48939    35.999903    1521.3048   -312129.19 
     680    89.488672    162324.49    72.156575    72.156576    35.999925          120    17068.698    18017.259   -31760.485   -1593.2123   -3808.1679     -140.608    72.156575    62.489428    35.999925    1108.4909   -312134.64 
     690    88.087288    162327.39    72.157005    72.157006    36.000139          120    16648.421    17816.702   -33575.661   -1318.8069   -4157.2788    114.40202    72.157005      62.4898    36.000139    296.48742   -312139.56 
     700    86.585965    162330.67    72.157491    72.157491    36.000382          120    15979.251     17169.83   -35598.124   -1421.2042   -4000.6346   -19.904497    72.157491    62.490221    36.000382   -816.34768   -312144.28 
     710    84.038972    162331.75     72.15765    72.157651    36.000461          120    15617.247    16515.411   -36478.598   -1750.5684   -3698.0498   -129.21621     72.15765    62.490359    36.000461   -1448.6465   -312146.09 
     720    82.548351    162329.34    72.157293    72.157294    36.000283          120    15773.369    16761.413   -36288.877   -1930.6522   -3491.2105   -389.13442    72.157293     62.49005    36.000283   -1251.3651   -312149.43 
     730    80.407069    162324.15    72.156524    72.156525    35.999899          120    15940.158    17332.516   -35120.011   -1759.8093   -3260.8906   -568.24919    72.156524    62.489384    35.999899   -615.77896   -312151.77 
     740    79.229731    162317.89    72.155597    72.155598    35.999437          120     15981.72    17913.933   -33626.618    -1595.953   -3003.5968   -836.53365    72.155597    62.488581    35.999437    89.678338   -312156.05 
     750    77.656861    162312.38     72.15478    72.154781    35.999029          120    16150.506    18105.197   -32230.709   -1332.7082   -2792.8066   -988.11299     72.15478    62.487873    35.999029    674.99809   -312158.72 
     760    76.243344    162308.88    72.154261    72.154262     35.99877          120    15925.327    17837.509   -31614.793   -1084.6799   -3027.7564   -818.39235    72.154261    62.487424     35.99877    716.01455   -312161.33 
     770    76.229046    162307.32    72.154031    72.154032    35.998655          120     15594.29    17580.576   -32409.228   -1250.4078   -3513.0778   -663.15978    72.154031    62.487225    35.998655    255.21255   -312166.65 
     780    74.438637    162306.48    72.153907    72.153907    35.998593          120    15487.341    17239.615   -33901.173   -1611.6948   -3786.2902   -707.16902    72.153907    62.487117    35.998593    -391.4055   -312168.64 
     790    72.788421    162304.77    72.153653    72.153653    35.998467          120    15486.387    16907.374   -34914.088   -1865.3347   -3852.2671   -404.57912    72.153653    62.486897    35.998467   -840.10906   -312170.29 
     800    72.308392    162301.17     72.15312     72.15312    35.998201          120     15579.47    16842.726   -35311.253   -2004.7901   -3933.7434    -130.8595     72.15312    62.486435    35.998201   -963.01883   -312174.39 
     810    71.192478    162295.56    72.152288    72.152288    35.997786          120    15872.524    17078.542   -35264.143   -1884.4852   -3750.7415   -276.41686    72.152288    62.485715    35.997786   -771.02573   -312177.08 
     820    69.504801    162288.56    72.151251    72.151251    35.997268          120    16618.925    17104.471   -34617.614   -1817.4337   -3429.3391   -619.26962    72.151251    62.484817    35.997268   -298.07264   -312178.05 
     830    68.614623    162281.41    72.150191    72.150192     35.99674          120    17176.806    17237.315   -33524.908   -1765.1285   -3108.4538   -1322.1041    72.150191    62.483899     35.99674    296.40453    -312180.5 
     840    67.199337    162275.53     72.14932     72.14932    35.996305          120    17142.243    17599.946   -32469.426   -1725.3867   -2993.0534   -1560.9904     72.14932    62.483145    35.996305     757.5878   -312181.83 
     850     66.94006    162271.95    72.148789    72.148789     35.99604          120    17285.453    17712.283   -31937.753   -1901.5896   -3088.7347   -1697.0632    72.148789    62.482685     35.99604    1019.9941   -312184.98 
     860    66.649469    162271.09    72.148661    72.148662    35.995976          120    17345.819    17637.716   -32194.274   -1755.8434   -3481.9964   -1639.6963    72.148661    62.482574    35.995976    929.75337   -312187.85 
     870    66.150338    162272.51    72.148872    72.148873    35.996082          120    17042.271    17542.049   -33062.858   -1601.8988   -3962.1908   -1283.6032    72.148872    62.482757    35.996082    507.15378   -312190.52 
     880    65.546139    162275.06     72.14925    72.149251     35.99627          120    16738.557    17667.313   -34231.348   -1498.4137   -4084.1181   -933.53176     72.14925    62.483084     35.99627    58.174348   -312192.66 
     890    64.252227    162277.59    72.149625    72.149625    35.996457          120    16691.642    17556.122   -34860.395   -1642.2426   -4154.0322   -754.39766    72.149625    62.483409    35.996457   -204.21036   -312193.61 
     900    63.123513    162279.53    72.149912    72.149913    35.996601          120    16789.243    17574.964   -34383.863   -1761.5567   -3930.7163   -735.42391    72.149912    62.483658    35.996601   -6.5519282   -312194.59 
     910    62.505709    162281.33    72.150179     72.15018    35.996734          120    17228.499    17547.519   -33835.218   -1783.1469     -3727.25   -854.17721    72.150179    62.483889    35.996734    313.60017   -312196.45 
     920    62.184514     162283.8    72.150545    72.150546    35.996916          120    17615.324     17704.83   -33089.438   -1833.2373   -3612.2698   -1237.0044    72.150545    62.484206    35.996916    743.57192   -312198.84 
     930    61.473283    162287.93    72.151157    72.151158    35.997222          120    17985.596    18039.204   -32683.769   -1788.8079   -3612.6434   -1577.1397    72.151157    62.484736    35.997222    1113.6769   -312199.71 
     940    60.333877    162294.43    72.152121    72.152122    35.997702          120    17842.023     18410.02   -32840.473   -1790.8614   -3553.1219   -1667.5533    72.152121     62.48557    35.997702    1137.1897   -312199.83 
     950    59.784093    162303.19    72.153419     72.15342     35.99835          120     17731.94    18258.469   -33461.872    -1646.584   -3551.2831   -1793.7451    72.153419    62.486695     35.99835    842.84561   -312201.62 
     960     59.49228    162313.36    72.154926    72.154927    35.999102          120    17427.979    17992.099   -34280.034   -1646.0035   -3528.7994   -1907.7139    72.154926       62.488    35.999102     380.0148   -312203.45 
     970    59.481518    162323.72    72.156461    72.156462    35.999868          120    17138.858    17706.946   -35092.092   -1794.9602    -3464.757   -1707.0417    72.156461    62.489329    35.999868    -82.09597   -312205.62 
     980    58.669962    162333.19    72.157864    72.157864    36.000568          120    16947.745    17495.309   -35235.493   -1841.1388   -3843.3232   -1721.6541    72.157864    62.490544    36.000568   -264.14616   -312206.06 
     990    58.279015    162341.38    72.159077    72.159078    36.001173          120    16700.598    17873.954   -34903.333   -1549.9732   -3973.7394   -1751.1502    72.159077    62.491595    36.001173   -109.59366   -312207.64 
    1000    58.287866    162348.77    72.160173    72.160173     36.00172          120    16864.966    18152.521    -34110.81   -1524.3405   -3790.9704   -1913.5871    72.160173    62.492543     36.00172    302.22551   -312209.18 
Loop time of 679.576 on 1 procs for 1000 steps with 14848 atoms

Performance: 0.127 ns/day, 188.771 hours/ns, 1.472 timesteps/s
56.2% CPU use with 1 MPI tasks x no OpenMP threads

MPI task timing breakdown:
Section |  min time  |  avg time  |  max time  |%varavg| %total
---------------------------------------------------------------
Pair    | 316.12     | 316.12     | 316.12     |   0.0 | 46.52
Bond    | 0.0009203  | 0.0009203  | 0.0009203  |   0.0 |  0.00
Kspace  | 14.605     | 14.605     | 14.605     |   0.0 |  2.15
Neigh   | 339.77     | 339.77     | 339.77     |   0.0 | 50.00
Comm    | 0.50585    | 0.50585    | 0.50585    |   0.0 |  0.07
Output  | 0.01367    | 0.01367    | 0.01367    |   0.0 |  0.00
Modify  | 8.3974     | 8.3974     | 8.3974     |   0.0 |  1.24
Other   |            | 0.1584     |            |       |  0.02

Nlocal:    14848 ave 14848 max 14848 min
Histogram: 1 0 0 0 0 0 0 0 0 0
Nghost:    46946 ave 46946 max 46946 min
Histogram: 1 0 0 0 0 0 0 0 0 0
Neighs:    1.01371e+07 ave 1.01371e+07 max 1.01371e+07 min
Histogram: 1 0 0 0 0 0 0 0 0 0

Total # of neighbors = 10137061
Ave neighs/atom = 682.722
Ave special neighs/atom = 0
Neighbor list builds = 125
Dangerous builds = 0
PPPM initialization ...
  using 12-bit tables for long-range coulomb (../kspace.cpp:321)
  G vector (1/distance) = 0.202692
  grid = 36 48 24
  stencil order = 5
  estimated absolute RMS force accuracy = 0.000992236
  estimated relative force accuracy = 6.8907e-05
  using double precision FFTs
  3d grid and FFT values/proc = 63017 41472
Setting up Verlet run ...
  Unit style    : metal
  Current step  : 0
  Time step     : 0.001
Per MPI rank memory allocation (min/avg/max) = 152.3 | 152.3 | 152.3 Mbytes
Step Temp Volume Cella Cellb Cellc CellGamma Pxx Pyy Pzz Pxy Pxz Pyz Lx Ly Lz Press PotEng 
       0    58.287866    162348.77    72.160173    72.160173     36.00172          120    16880.424    18167.678   -34100.934   -1524.5687   -3790.6919   -1913.7303    72.160173    62.492543     36.00172    315.72282   -312208.96 
      10    57.685051    162356.38    72.161299      72.1613    36.002282          120    16790.637    18282.578   -33392.725   -1492.3167   -3558.2346   -1943.6386    72.161299    62.493519    36.002282    560.16322   -312209.46 
      20    57.189376    162364.74    72.162538    72.162539      36.0029          120    16466.781    18117.334   -33392.057   -1396.3538   -3405.7719     -1927.06    72.162538    62.494592      36.0029    397.35256   -312209.96 
      30    56.962293    162373.49    72.163835    72.163836    36.003547          120    16425.338     17954.83   -33813.744   -1396.7018   -3459.5995   -1935.4489    72.163835    62.495715    36.003547    188.80776    -312210.7 
      40    57.136574     162382.1     72.16511     72.16511    36.004183          120    16306.815    17663.474   -33943.943    -1394.678   -3584.1563   -2184.5161     72.16511    62.496819    36.004183    8.7820493   -312212.18 
      50    57.139384    162390.12    72.166298    72.166298    36.004775          120    16316.537    17478.684   -34294.323   -1566.2558   -3540.9489   -2195.8938    72.166298    62.497848    36.004775   -166.36708    -312213.4 
      60    56.570973    162397.19    72.167345    72.167346    36.005298          120    16383.601    17374.468   -34504.555   -1570.8851   -3601.3235   -1790.3031    72.167345    62.498755    36.005298    -248.8287   -312212.91 
      70    56.391929    162403.18    72.168233    72.168233    36.005741          120    16386.423    17513.597   -34587.519   -1636.7794   -3826.9772   -1655.4576    72.168233    62.499524    36.005741   -229.16602   -312213.34 
      80    56.362005    162408.17    72.168972    72.168973     36.00611          120    16427.971    17421.533   -34657.154   -1670.0527   -4095.7393   -1527.8549    72.168972    62.500164     36.00611   -269.21666   -312214.06 
      90     56.46563    162412.17    72.169564    72.169565    36.006405          120    16346.631    17011.944   -34071.645   -1585.3596   -4306.0366   -1603.4795    72.169564    62.500677    36.006405   -237.69009   -312214.86 
     100    56.433741    162415.31    72.170029     72.17003    36.006637          120     16293.27    17047.299   -33694.482   -1383.7433   -4274.7146   -1705.6746    72.170029    62.501079    36.006637   -117.97073   -312215.51 
     110     56.10888    162417.99    72.170426    72.170427    36.006835          120    16584.641    17470.566   -33539.673   -1353.2777   -4001.3951   -1646.2105    72.170426    62.501423    36.006835    171.84443   -312214.98 
     120    56.244962    162420.89    72.170856    72.170856    36.007049          120    16818.119    17676.003   -33502.715   -1317.5261   -3870.0885   -1815.9126    72.170856    62.501795    36.007049    330.46874   -312215.57 
     130     56.51639    162424.38    72.171373    72.171373    36.007307          120    16806.999     17701.63   -33552.326   -1377.1519   -3768.7855   -2096.4076    72.171373    62.502243    36.007307    318.76752   -312216.15 
     140    56.743246    162428.42    72.171971    72.171971    36.007606          120    16925.296    17674.428    -33941.24   -1417.9537   -3899.3865    -2088.705    72.171971    62.502761    36.007606    219.49446   -312216.61 
     150    56.628207    162432.69    72.172604    72.172605    36.007922          120    16773.193    17705.192    -34671.51   -1259.4837   -3912.4048   -2005.2245    72.172604    62.503309    36.007922   -64.374953   -312216.05 
     160    56.418653    162436.53    72.173172    72.173173    36.008205          120    16412.898    17736.453   -35080.417   -1126.2211   -3882.1805   -1922.4864    72.173172    62.503801    36.008205   -310.35522   -312215.21 
     170    57.033662    162439.38    72.173595    72.173596    36.008416          120    16070.746    17754.622   -34731.494   -1177.8929   -3916.4345    -1743.717    72.173595    62.504168    36.008416   -302.04182    -312215.7 
     180    57.912565    162441.36    72.173887    72.173888    36.008562          120    16091.318    17895.512   -34204.441   -1271.4375   -3890.8491   -1748.2292    72.173887    62.504421    36.008562   -72.536977   -312216.63 
     190    58.122761    162442.97    72.174126    72.174126    36.008681          120    16185.319    17894.786   -34227.562    -1322.355   -4015.8174   -1622.6419    72.174126    62.504627    36.008681   -49.152473   -312216.18 
     200     57.46095    162444.34    72.174329     72.17433    36.008782          120    16243.209    17718.952   -34086.163   -1154.4904   -4176.4816   -1840.1292    72.174329    62.504803    36.008782   -41.334187   -312214.24 
     210     57.30205    162445.52    72.174504    72.174504     36.00887          120    16456.497    17515.537   -34031.446   -925.80599   -4144.0548   -2095.7362    72.174504    62.504954     36.00887   -19.803955   -312213.26 
     220    58.493399    162446.54    72.174654    72.174655    36.008945          120    16463.095    17585.153    -34493.76   -932.87146   -4064.6335   -2364.6927    72.174654    62.505085    36.008945   -148.50404   -312214.45 
     230    58.622394    162447.13    72.174743    72.174743    36.008989          120    16491.345    17610.563   -34747.343   -686.29567   -3956.0935   -2450.7874    72.174743    62.505161    36.008989   -215.14493   -312213.95 
     240    58.678379    162447.17    72.174749    72.174749    36.008992          120    16763.434     17680.86   -34950.986    -664.1464   -3874.3234   -2417.6427    72.174749    62.505166    36.008992    -168.8971   -312212.97 
     250    59.055837    162446.83    72.174698    72.174698    36.008966          120    16850.397    17860.118   -34601.359   -876.23452   -4036.8044   -2308.1238    72.174698    62.505122    36.008966    36.385229   -312212.74 
     260    59.499228    162446.56    72.174657    72.174658    36.008946          120    16637.618    17963.298   -34315.073   -915.93468    -3931.412   -2312.7998    72.174657    62.505087    36.008946    95.280906   -312212.27 
     270     60.02232    162446.54    72.174655    72.174655    36.008945          120    16694.171    17947.692   -34183.615   -894.67358   -3836.8045   -2129.7708    72.174655    62.505085    36.008945    152.74972   -312212.22 
     280    59.986282    162446.92    72.174711    72.174712    36.008973          120    16846.185    18027.353   -34070.626   -884.39049   -3823.1133   -1922.6033    72.174711    62.505134    36.008973    267.63744   -312211.01 
     290    60.517301    162447.94    72.174863    72.174863    36.009049          120    16747.822    18035.966   -33651.257   -806.68864   -3819.2851   -2220.2029    72.174863    62.505265    36.009049    377.51023   -312210.96 
     300     60.89499    162449.87    72.175148    72.175149    36.009191          120    16893.051    18022.318   -33270.651   -664.21879   -3748.1246    -2495.261    72.175148    62.505513    36.009191    548.23951   -312210.36 
     310    61.251768    162452.97    72.175607    72.175607     36.00942          120    16733.492    17926.248   -33438.583   -785.50976   -3729.0479   -2648.1663    72.175607     62.50591     36.00942    407.05259   -312210.35 
     320    60.787382    162456.85    72.176182    72.176183    36.009707          120     16503.76    17712.222   -33801.443   -852.20371   -3735.8876   -2634.2406    72.176182    62.506408    36.009707    138.17967   -312208.56 
     330     61.38444    162460.83    72.176771    72.176772    36.010001          120    16185.091    17669.749   -34238.421    -977.3789   -3709.1862   -2720.5047    72.176771    62.506918    36.010001   -127.86038   -312208.75 
     340    61.992935    162464.31    72.177286    72.177287    36.010258          120    16259.432    17782.502   -34334.408   -1051.4134   -4050.5406    -2640.298    72.177286    62.507364    36.010258   -97.491264   -312209.34 
     350    61.788279    162467.35    72.177737    72.177737    36.010482          120    16469.403     17784.53   -34092.699   -1034.9178    -4253.806    -2596.863    72.177737    62.507754    36.010482    53.744508   -312208.19 
     360    62.103216    162470.35    72.178181    72.178181    36.010704          120    16498.478    17659.584   -33549.933   -1118.5837   -4285.9128   -2431.1288    72.178181    62.508139    36.010704    202.70955   -312208.17 
     370    62.170975    162473.62    72.178665    72.178666    36.010946          120    16451.113    17619.674   -33621.126   -1290.2995   -4228.6703   -2410.3138    72.178665    62.508559    36.010946    149.88699   -312207.65 
     380     62.22584    162477.04    72.179171    72.179172    36.011198          120    16436.322    17559.681    -34204.23    -1581.657    -4147.385   -2545.4896    72.179171    62.508996    36.011198   -69.408954   -312207.27 
     390    63.186118    162480.06    72.179619    72.179619    36.011421          120    16405.533    17261.406   -34582.206   -1692.8919   -4308.9541   -2169.5983    72.179619    62.509384    36.011421   -305.08868   -312208.58 
     400    63.722263    162482.16    72.179929     72.17993    36.011576          120    16297.786    17185.757   -34748.473   -1680.6868   -4292.0867   -2000.9232    72.179929    62.509653    36.011576   -421.64338   -312208.72 
     410    63.565202    162483.09    72.180068    72.180069    36.011646          120    16211.196    17403.052   -34884.742   -1464.6493     -4254.97   -2011.5052    72.180068    62.509773    36.011646   -423.49807   -312208.54 
     420    62.772313    162482.93    72.180045    72.180045    36.011634          120    16193.546    17587.044   -34740.553   -1400.3633   -4108.4495   -2125.3348    72.180045    62.509753    36.011634   -319.98781   -312207.06 
     430    62.700959    162482.04    72.179912    72.179913    36.011568          120    16571.938    17752.533   -34338.848   -1401.1123   -3907.0817   -2281.0469    72.179912    62.509638    36.011568   -4.7919729   -312206.62 
     440    63.025061    162481.11    72.179775    72.179776    36.011499          120    16734.401    17667.937   -34276.491   -1422.5264   -3749.3131   -2418.0637    72.179775     62.50952    36.011499    41.948945   -312207.55 
     450    63.345415    162480.32    72.179658    72.179658    36.011441          120    16675.998    17549.678   -34227.232   -1678.9315   -3617.3114   -2559.7311    72.179658    62.509418    36.011441  -0.51852654   -312208.25 
     460    62.805663     162479.6    72.179551    72.179552    36.011388          120    16810.906    17662.429    -34143.73   -1590.8617   -3713.0465   -2299.4863    72.179551    62.509325    36.011388    109.86829    -312207.9 
     470    62.334457    162479.21    72.179493    72.179494    36.011359          120    16763.289    17822.852    -33918.47     -1380.41   -3894.3818   -2118.1329    72.179493    62.509275    36.011359    222.55713   -312207.45 
     480    62.749401    162479.38    72.179518    72.179518    36.011371          120    16647.355    17844.509    -33821.59   -1216.3984   -3735.1812   -2177.2154    72.179518    62.509297    36.011371    223.42469   -312209.16 
     490    61.937305    162480.12    72.179627    72.179628    36.011426          120    16846.394    17920.169   -33779.864   -1062.8705   -3591.7845   -2069.1923    72.179627    62.509392    36.011426    328.89976   -312208.21 
     500    61.366243    162481.65    72.179854    72.179855    36.011539          120    17252.046     18109.51   -33880.391   -1118.1246   -3945.4621   -2206.6885    72.179854    62.509588    36.011539    493.72151   -312207.55 
     510    61.381906     162484.3    72.180247    72.180248    36.011735          120    17360.451    18521.772   -34202.122   -1230.5818   -3892.4617   -2191.3987    72.180247    62.509928    36.011735    560.03352   -312208.49 
     520    61.408151    162488.14    72.180816    72.180817    36.012019          120    17123.619    18409.374   -34283.634   -1393.8593   -3536.7067   -1900.1963    72.180816    62.510421    36.012019    416.45313   -312209.52 
     530    60.860943     162492.8    72.181505    72.181506    36.012363          120    16805.013    18126.679   -34189.309   -1400.7025   -3694.3359   -1717.5342    72.181505    62.511018    36.012363      247.461   -312209.34 
     540    61.324965    162497.81    72.182247    72.182248    36.012733          120    16542.942    17815.639   -34219.047   -1468.6269   -3879.7053   -1787.4059    72.182247     62.51166    36.012733    46.510962   -312211.61 
     550    60.960396    162502.61    72.182958    72.182959    36.013088          120    16227.137    17484.989   -34613.937   -1535.0897   -3734.2962   -1716.2536    72.182958    62.512276    36.013088   -300.60395   -312211.73 
     560    60.518184    162506.43    72.183523    72.183523    36.013369          120    15864.376    17365.782   -34680.385   -1500.8231   -3618.2725   -1436.2214    72.183523    62.512765    36.013369   -483.40905   -312212.12 
     570    60.918941    162508.87    72.183885    72.183885     36.01355          120    15430.074    17759.866   -34388.011   -1486.7427   -3431.3306   -1533.4401    72.183885    62.513079     36.01355   -399.35707   -312213.97 
     580    60.201043    162510.18    72.184079     72.18408    36.013647          120    15374.526    18160.435   -34305.963   -1403.9843   -3562.1074   -1685.1932    72.184079    62.513247    36.013647   -257.00066    -312214.1 
     590     59.94044    162510.75    72.184163    72.184164    36.013689          120    15736.573    17884.901   -34404.204   -1400.4129   -3556.9321   -1764.6676    72.184163     62.51332    36.013689   -260.91013   -312214.62 
     600    59.484721    162510.63    72.184146    72.184146     36.01368          120    16038.492    17455.809   -34465.941   -1448.6172   -3630.3252   -2037.3779    72.184146    62.513305     36.01368   -323.88015   -312214.64 
     610    59.018203    162509.69    72.184006    72.184007    36.013611          120    16107.547    17073.394   -34609.017   -1476.0201    -3697.971   -2143.4572    72.184006    62.513184    36.013611   -476.02522   -312214.65 
     620    58.977325    162507.58    72.183693    72.183694    36.013454          120    15909.836    16893.588    -34965.47   -1384.8402   -3608.2472   -1996.8093    72.183693    62.512913    36.013454   -720.68197   -312215.27 
     630    58.198831    162503.84    72.183139     72.18314    36.013178          120    15760.568     17057.86   -34904.828   -1297.5951   -3700.6285   -1680.4191    72.183139    62.512433    36.013178   -695.46648   -312214.39 
     640    58.545113    162498.63    72.182368    72.182369    36.012793          120    15836.848    17426.466   -34453.282   -1461.2915   -3630.1271   -1397.9634    72.182368    62.511765    36.012793   -396.65634   -312216.13 
     650    58.324449    162492.69     72.18149     72.18149    36.012355          120    16096.109    17630.865   -34242.643   -1410.1633   -3661.0132   -1434.4307     72.18149    62.511004    36.012355   -171.88976   -312216.81 
     660    58.658929    162486.57    72.180583    72.180584    36.011902          120    16200.897    17442.346   -34370.044   -1382.5689   -3805.2208   -1723.2845    72.180583    62.510219    36.011902   -242.26665   -312218.02 
     670    58.838445    162480.21    72.179642    72.179642    36.011433          120    16353.642    17463.401   -34354.976   -1437.4061   -4010.1691   -1891.8984    72.179642    62.509404    36.011433   -179.31096   -312219.09 
     680    58.761028    162473.76    72.178686    72.178687    36.010956          120    16599.192     17564.69    -34352.67   -1445.9883   -4384.5044   -2080.4879    72.178686    62.508577    36.010956   -62.929098   -312219.32 
     690    58.721031    162467.54    72.177764    72.177765    36.010496          120    16870.494    17791.489   -34059.312   -1439.4597   -4657.1837    -2183.764    72.177764    62.507778    36.010496    200.89013    -312219.7 
     700    58.382821    162462.13    72.176964    72.176964    36.010097          120    16791.584     18308.26   -33993.196   -1478.4518   -4331.7626   -2254.9518    72.176964    62.507085    36.010097    368.88288   -312219.51 
     710    58.202597     162457.9    72.176338    72.176339    36.009785          120    16695.004    18454.744   -33987.622   -1562.0855   -4242.3534   -2307.8107    72.176338    62.506543    36.009785    387.37549   -312219.54 
     720    57.872281    162454.87    72.175888    72.175889     36.00956          120    16612.768    18258.113   -33808.967   -1603.9925   -4145.4173   -2232.6534    72.175888    62.506154     36.00956    353.97145   -312218.95 
     730    58.210752    162452.89    72.175595    72.175595    36.009414          120    16546.193    18308.664   -33738.361   -1639.2404   -3845.1209    -1918.923    72.175595    62.505899    36.009414    372.16575   -312219.92 
     740    58.245684    162451.98    72.175461    72.175461    36.009347          120     16861.29    18384.265   -33627.531   -1520.9065    -3782.886    -1996.193    72.175461    62.505783    36.009347    539.34128   -312220.59 
     750    58.029596    162452.41    72.175525    72.175525    36.009379          120    16928.564    18261.665   -33743.491   -1437.0265   -3738.6646   -1951.9136    72.175525    62.505839    36.009379    482.24619   -312220.51 
     760    57.595169    162454.03    72.175764    72.175764    36.009498          120    16916.139    18252.141   -34002.646   -1336.1984   -3783.3221   -1912.8943    72.175764    62.506045    36.009498    388.54432   -312219.95 
     770    57.818753    162456.57     72.17614    72.176141    36.009686          120    17382.643     18222.38   -34227.366     -1598.97   -3988.2882   -2061.4224     72.17614    62.506372    36.009686    459.21896   -312220.15 
     780    57.505813    162460.13    72.176667    72.176668    36.009949          120    17488.602    18167.543   -34037.595   -1970.8291   -4197.8123   -2011.7503    72.176667    62.506828    36.009949    539.51682   -312219.49 
     790    57.370484     162464.8     72.17736     72.17736    36.010294          120    17516.069    18057.909   -34263.788   -1873.6946   -4154.6232   -2055.5661     72.17736    62.507428    36.010294    436.72999   -312218.91 
     800    57.638706    162470.34     72.17818     72.17818    36.010703          120    17461.193    18109.562   -34374.786   -1522.2926   -4002.6758   -2082.0695     72.17818    62.508138    36.010703     398.6562   -312219.87 
     810    57.630691    162476.61    72.179108    72.179109    36.011167          120    17438.216     18199.87   -34202.536   -1217.0581   -3902.6403   -2324.3288    72.179108    62.508942    36.011167    478.51659   -312219.07 
     820    58.471309    162483.74    72.180165    72.180165    36.011694          120    17644.092    18171.421   -34240.559   -1012.7662   -3899.7462   -2351.1654    72.180165    62.509857    36.011694    524.98469   -312220.08 
     830    59.224683     162491.8    72.181357    72.181357    36.012289          120    17513.952    18034.586   -34120.324   -1054.8323   -3689.2048   -2413.0315    72.181357    62.510889    36.012289    476.07153   -312221.02 
     840    58.887369     162500.6    72.182661    72.182662    36.012939          120    17184.056    17868.206   -34047.441    -1322.898   -3745.6845   -2396.7269    72.182661    62.512019    36.012939    334.94039   -312219.99 
     850    58.895613    162509.79    72.184021    72.184022    36.013618          120    16831.091    17879.436   -34199.491   -1417.0274    -3609.873     -2129.78    72.184021    62.513197    36.013618    170.34544   -312218.95 
     860    59.058069     162518.9    72.185369     72.18537     36.01429          120    16354.601    17873.773   -34448.877   -1397.7354   -3357.5971   -2230.2928    72.185369    62.514364     36.01429    -73.50104   -312218.99 
     870    58.651157    162527.37    72.186624    72.186624    36.014916          120    16283.853    17569.356   -34490.422   -1322.4108    -3465.519   -2073.9605    72.186624    62.515451    36.014916   -212.40416   -312217.62 
     880    58.709474    162534.87    72.187735    72.187735    36.015471          120    16137.128    17456.891     -34592.1    -1187.361    -3591.279   -2076.0206    72.187735    62.516413    36.015471   -332.69372   -312216.84 
     890    59.270795    162541.16    72.188665    72.188666    36.015935          120    16184.983    17322.857   -34825.772    -1188.688   -3691.2604   -1890.4288    72.188665    62.517219    36.015935   -439.31062   -312217.33 
     900    59.628058    162546.04    72.189387    72.189388    36.016295          120    16133.601    17167.465   -34713.624   -1395.5486   -3766.1496   -1810.9259    72.189387    62.517844    36.016295   -470.85266   -312217.11 
     910    60.009131     162549.5      72.1899    72.189901    36.016551          120    16008.824    17329.435   -34552.517   -1542.9469   -3833.7015   -2003.5003      72.1899    62.518288    36.016551   -404.75259    -312217.1 
     920    60.412001    162551.77    72.190237    72.190237    36.016719          120    15906.563    17579.042   -34515.474    -1534.316   -3920.7189   -1862.9991    72.190237    62.518579    36.016719   -343.28935   -312217.11 
     930    60.837406    162553.08    72.190429     72.19043    36.016815          120    16114.867    17614.428   -34451.668   -1406.4343   -3872.5998   -1851.0789    72.190429    62.518746    36.016815   -240.79108   -312217.21 
     940    61.104502    162553.68    72.190519    72.190519     36.01686          120    16194.346    17479.126   -34451.169   -1172.6201   -3914.1332   -1664.1302    72.190519    62.518824     36.01686   -259.23216   -312216.69 
     950    60.740454    162553.58    72.190504    72.190505    36.016852          120    16299.404    17323.083    -34653.76     -1137.32   -3954.3424   -1910.6452    72.190504    62.518811    36.016852   -343.75796   -312215.32 
     960    60.845088    162552.62    72.190362    72.190362    36.016781          120    16164.557    17430.031   -34944.247   -1345.6484   -3774.8413   -2046.6021    72.190362    62.518688    36.016781   -449.88624   -312214.94 
     970    60.804852    162550.58    72.190061    72.190061    36.016631          120    15963.558    17596.061   -35044.481   -1568.6919    -3747.958   -2046.9578    72.190061    62.518427    36.016631   -494.95362   -312214.29 
     980    61.313198    162547.43    72.189593    72.189594    36.016398          120    16134.284    17565.674   -35066.118   -1516.7829   -3942.8051   -2081.5351    72.189593    62.518022    36.016398   -455.38681   -312214.83 
     990    61.343107    162543.29     72.18898    72.188981    36.016092          120    15935.309     17778.25   -34831.457   -1331.6062    -4126.342   -2047.5578     72.18898    62.517491    36.016092   -372.63264   -312214.04 
    1000     61.74583    162538.46    72.188266    72.188267    36.015736          120    16242.162    17896.872   -34353.843   -1191.2176   -4169.0528   -1856.8776    72.188266    62.516873    36.015736   -71.602926   -312214.29 
    1010    61.718316    162533.72    72.187564    72.187564    36.015385          120    16602.679    18285.708   -33977.012   -1302.7246   -4292.0163   -1900.0842    72.187564    62.516265    36.015385    303.79155   -312214.04 
    1020    61.524745    162529.95    72.187006    72.187006    36.015107          120    16848.094    18663.639   -33864.953   -1553.7482   -4274.5263   -1829.1918    72.187006    62.515781    36.015107    548.92656   -312213.46 
    1030    61.244152    162527.68    72.186669     72.18667    36.014939          120    16719.688    18678.258   -33974.967   -1587.1192   -4083.6162   -1598.8301    72.186669     62.51549    36.014939    474.32621    -312212.8 
    1040    61.528365    162526.65    72.186517    72.186518    36.014863          120    16291.443    18618.693   -34482.376   -1626.5162   -3971.6773   -1624.1315    72.186517    62.515358    36.014863    142.58671   -312212.86 
    1050    62.021951    162526.02    72.186423    72.186424    36.014816          120    15938.085    18327.862   -34901.051   -1602.4743   -3930.1166   -1824.9851    72.186423    62.515277    36.014816   -211.70136   -312213.72 
    1060    62.388522    162524.89    72.186256    72.186257    36.014733          120    15892.734      17847.4   -35301.693    -1498.825   -3832.5451   -2019.3302    72.186256    62.515133    36.014733   -520.51974    -312214.2 
    1070    62.611089    162522.54    72.185909    72.185909     36.01456          120    15900.619    17530.298   -35376.541   -1291.3467    -3801.298    -1977.542    72.185909    62.514832     36.01456   -648.54115    -312214.9 
    1080    62.210474    162518.76     72.18535     72.18535    36.014281          120    16093.347     17629.92   -34963.282   -1112.6082   -3801.1256    -2019.598     72.18535    62.514347    36.014281   -413.33829   -312213.92 
    1090    62.257188    162514.14    72.184665    72.184666    36.013939          120    16488.854    17743.421   -34530.627   -1318.7481   -3872.3216   -1844.2226    72.184665    62.513754    36.013939   -99.450641   -312214.22 
    1100    62.174493    162509.46    72.183972    72.183973    36.013594          120    16542.643    17817.199   -34187.752   -1666.0502   -3935.4157   -1842.0406    72.183972    62.513155    36.013594    57.363219   -312214.55 
    1110    62.094995    162505.07    72.183323    72.183323    36.013269          120    16219.009    17581.953   -34255.966   -1710.5693   -3794.3694   -1948.0155    72.183323    62.512592    36.013269     -151.668   -312214.58 
    1120    61.732671    162500.52    72.182649    72.182649    36.012933          120    15976.135    17397.993    -34406.69   -1464.0066   -3631.3219   -2285.2025    72.182649    62.512008    36.012933   -344.18726   -312213.75 
    1130    62.053856    162495.36    72.181884    72.181884    36.012552          120     15935.92    17700.429   -34599.228   -1549.2714   -3518.2899    -2103.909    72.181884    62.511346    36.012552   -320.95979      -312215 
    1140    61.909837    162489.68    72.181043    72.181044    36.012132          120    16411.257    17840.077   -34608.247   -1690.6837   -3581.4775   -1869.5818    72.181043    62.510618    36.012132   -118.97113   -312215.16 
    1150     61.36094    162483.95    72.180196    72.180196    36.011709          120    16683.495    17959.766   -34555.827   -1854.8229   -3656.7711   -1934.2105    72.180196    62.509884    36.011709    29.144681   -312215.32 
    1160    61.163953    162478.62    72.179405    72.179406    36.011315          120    16973.434    18188.702   -34357.204   -1902.4418   -3915.5746   -1672.5263    72.179405    62.509199    36.011315    268.31055   -312215.77 
    1170     61.40212    162474.16    72.178746    72.178746    36.010986          120    16682.761    18436.415    -34044.02    -1904.114   -4151.0886   -1779.2049    72.178746    62.508628    36.010986    358.38535   -312216.61 
    1180    61.346312    162470.81    72.178249    72.178249    36.010738          120     16602.32    18441.411   -33828.433   -1752.6224     -4122.79   -1670.7863    72.178249    62.508197    36.010738    405.09966   -312217.25 
    1190    60.571162    162468.65    72.177929    72.177929    36.010578          120    16774.086    18296.322   -33557.745   -1586.4118   -4020.8228   -1580.4923    72.177929    62.507921    36.010578    504.22086   -312216.52 
    1200    60.595506    162467.81    72.177805    72.177806    36.010517          120    16753.493    18538.195   -33804.625   -1610.7682   -3656.9132   -1786.8339    72.177805    62.507814    36.010517    495.68753   -312217.26 
    1210    60.377164    162468.28    72.177875    72.177875    36.010551          120    16938.527    18818.121   -34002.998   -1707.2693   -3647.3329   -1901.1559    72.177875    62.507874    36.010551    584.55015   -312217.75 
    1220    59.775396    162470.22    72.178162    72.178163    36.010695          120    17329.382    19043.107   -33931.793   -1618.9962   -3493.6553   -1833.5983    72.178162    62.508123    36.010695    813.56529   -312217.46 
    1230    59.605366    162474.12     72.17874     72.17874    36.010983          120    17573.475    19353.864   -33830.698   -1510.9725   -3293.9663   -1730.2979     72.17874    62.508623    36.010983    1032.2135   -312218.11 
    1240    59.791109    162480.36    72.179663    72.179663    36.011443          120     17387.93    19376.351   -34081.767   -1445.0518   -3311.2482   -1653.3642    72.179663    62.509422    36.011443     894.1713   -312219.18 
    1250     59.00157    162488.51    72.180871    72.180871    36.012046          120    16948.224    18863.286   -34197.433   -1501.5896   -3544.0672   -1586.6385    72.180871    62.510468    36.012046    538.02548   -312218.47 
    1260    59.398636     162497.6    72.182217    72.182217    36.012718          120    16697.329    18157.173   -34662.133    -1560.483   -3693.7187   -1598.7338    72.182217    62.511634    36.012718    64.122968   -312220.04 
    1270    58.800449    162506.51    72.183535    72.183536    36.013376          120    16307.296    18193.453   -34763.196     -1589.64   -3471.5919   -1476.8785    72.183535    62.512776    36.013376   -87.482426   -312219.72 
    1280    59.109705    162514.86    72.184772    72.184772    36.013992          120     16328.85    18311.935   -34299.681   -1757.8507   -3488.1586   -1421.9472    72.184772    62.513847    36.013992     113.7015   -312221.11 
    1290    59.199141    162523.08    72.185989     72.18599      36.0146          120    16449.027    18305.193   -34043.495   -1603.8991    -3372.969   -1499.2879    72.185989    62.514901      36.0146    236.90828   -312221.78 
    1300     59.15321    162531.46    72.187229     72.18723    36.015218          120    16228.622    18334.209   -34223.859   -1319.6838   -3240.4289   -1447.3477    72.187229    62.515975    36.015218    112.99045   -312222.22 
    1310    58.199806    162539.72    72.188452    72.188453    36.015828          120    15905.017    18173.983   -34318.332   -1185.6471   -3307.8294   -1737.5061    72.188452    62.517034    36.015828   -79.777457    -312221.1 
    1320    57.934494    162547.35    72.189582    72.189583    36.016392          120    15603.348    17891.285   -34747.246   -1144.7352   -3302.0322   -2304.2289    72.189582    62.518013    36.016392   -417.53724   -312221.18 
    1330    58.121796    162553.57    72.190503    72.190503    36.016852          120    15475.686    17455.827   -35174.565   -1299.6396   -3382.0771   -2263.5062    72.190503     62.51881    36.016852    -747.6837   -312222.05 
    1340    58.310774     162557.7    72.191113    72.191114    36.017156          120    15762.921    17255.497   -35336.166    -1386.976   -3318.5887    -2098.818    72.191113    62.519339    36.017156   -772.58253   -312222.74 
    1350    57.464985     162559.7     72.19141    72.191411    36.017304          120    15833.225    17214.877   -35197.645   -1517.1916   -3314.9616    -1999.205     72.19141    62.519596    36.017304   -716.51433   -312221.39 
    1360    58.017796    162559.84     72.19143    72.191431    36.017314          120    15903.622    17316.583    -34835.86   -1439.3074   -3422.3103   -1723.6611     72.19143    62.519613    36.017314   -538.55197   -312222.28 
    1370    57.881985    162558.66    72.191256    72.191257    36.017227          120     16350.93    17493.719   -34386.339    -1388.594   -3284.6307   -1609.6323    72.191256    62.519462    36.017227   -180.56324   -312222.21 
    1380    58.386067    162557.03    72.191015    72.191016    36.017107          120    16774.278    17600.139   -34365.744   -1415.9222   -3214.2987   -1598.5607    72.191015    62.519254    36.017107    2.8911981   -312223.51 
    1390     58.27844    162555.46    72.190783    72.190783    36.016991          120    16889.885    17848.889   -34471.758   -1486.4646   -3292.3838   -1482.7053    72.190783    62.519052    36.016991    89.005254    -312223.3 
    1400    58.377892    162554.15    72.190588    72.190589    36.016894          120    16771.538    17898.913   -34592.029   -1454.2298   -3493.4594   -1859.7397    72.190588    62.518884    36.016894    26.140877   -312223.54 
    1410    58.589688    162552.92    72.190406    72.190406    36.016803          120    16524.449    17791.322   -34932.211   -1419.5819   -3566.6772   -2250.7382    72.190406    62.518726    36.016803   -205.47969   -312223.85 
    1420    59.109716    162551.26    72.190161    72.190161    36.016681          120    16268.717    17898.198   -34970.666   -1607.5946   -3704.0686   -2410.0195    72.190161    62.518514    36.016681   -267.91696   -312224.57 
    1430    59.271157    162549.03    72.189831    72.189832    36.016516          120    16476.493     17868.46    -35010.14   -1496.0152   -4145.2331   -2306.5853    72.189831    62.518228    36.016516   -221.72896   -312224.99 
    1440    58.919337    162546.29    72.189425    72.189426    36.016314          120     16658.92    17410.525   -35169.071   -1352.3448   -4253.3006   -2081.2187    72.189425    62.517877    36.016314   -366.54182   -312223.93 
    1450    59.056128    162542.79    72.188906    72.188907    36.016055          120    16656.473    17529.806   -35206.252   -1396.7488   -4487.6803   -2033.3525    72.188906    62.517427    36.016055   -339.99107   -312223.65 
    1460    58.948828    162538.64    72.188292    72.188293    36.015749          120    16598.807    17913.541   -34679.894    -1317.564   -4500.0009   -2038.0674    72.188292    62.516896    36.015749   -55.848602   -312223.07 
    1470    58.989227    162534.49    72.187678    72.187679    36.015442          120     16385.07    17984.597   -34239.399   -1422.0774   -4403.9529   -1829.4402    72.187678    62.516364    36.015442    43.422927   -312222.85 
    1480    59.077064     162530.6    72.187102    72.187102    36.015155          120    16221.883    17886.266   -34234.483   -1591.1397    -3994.223   -1743.5231    72.187102    62.515864    36.015155   -42.111342   -312222.51 
    1490    59.391261    162526.73    72.186529    72.186529    36.014869          120    16004.618     17761.45   -34650.914   -1561.8915   -3680.0706   -1683.4834    72.186529    62.515368    36.014869   -294.94864   -312222.64 
    1500    59.387783    162522.28     72.18587    72.185871    36.014541          120    15773.724    17440.378   -34805.964   -1566.7993   -3690.6832   -1928.7171     72.18587    62.514798    36.014541   -530.62062   -312222.28 
    1510    59.470178    162516.78    72.185055    72.185056    36.014134          120    16016.418    17488.706   -34681.157    -1455.182    -3609.766   -2346.2459    72.185055    62.514092    36.014134   -392.01072   -312221.69 
    1520    59.803369    162510.59     72.18414    72.184141    36.013677          120    16505.284     18077.14   -34459.263   -1449.7725   -3828.6345   -2245.8497     72.18414      62.5133    36.013677     41.05382    -312221.7 
    1530    59.632077    162504.76    72.183277    72.183277    36.013246          120    16857.721    18527.656   -34277.847   -1420.5034   -3980.4846    -1956.059    72.183277    62.512552    36.013246    369.17663   -312220.86 
    1540    60.187727    162500.06     72.18258    72.182581    36.012899          120    16946.201    18629.486   -34414.699   -1550.7829   -4253.7126    -1823.619     72.18258    62.511949    36.012899    386.99617   -312221.46 
    1550    59.975884    162496.45    72.182046    72.182047    36.012632          120    16557.307    18119.786   -34621.891   -1658.6946    -4457.362   -1817.4963    72.182046    62.511486    36.012632    18.400593   -312220.46 
    1560    59.767862    162493.06    72.181544    72.181545    36.012382          120    16304.837    17695.344   -34800.314   -1562.3207   -4417.9261    -1950.633    72.181544    62.511052    36.012382   -266.71086   -312219.54 
    1570    60.517559    162489.24    72.180978    72.180978      36.0121          120    16666.496     17646.05   -34887.101   -1381.1552   -4257.0855   -1854.0644    72.180978    62.510561      36.0121   -191.51816   -312220.74 
    1580    60.351606    162485.09    72.180364    72.180365    36.011793          120    16963.167    17701.665   -34909.753   -1258.7376   -4205.2189   -1775.6185    72.180364     62.51003    36.011793   -81.640131   -312219.92 
    1590    60.692246    162480.95     72.17975    72.179751    36.011487          120    17152.563    17726.482   -34438.347   -1325.3566   -4213.9425   -1844.6784     72.17975    62.509498    36.011487    146.89917   -312220.34 
    1600     61.20631    162477.31    72.179212    72.179212    36.011218          120    17193.689    18090.103   -34523.443   -1363.2161   -3983.6425   -1966.5067    72.179212    62.509031    36.011218    253.44967    -312221.1 
    1610    61.977821    162474.45    72.178788    72.178789    36.011007          120     16875.13    18670.646   -34667.304   -1541.4987   -3981.4953   -1811.4316    72.178788    62.508665    36.011007    292.82396   -312222.06 
    1620    61.331465    162472.47    72.178495    72.178496    36.010861          120    16937.793    18919.994   -34550.627   -1481.9156   -3979.2295   -1756.3607    72.178495    62.508411    36.010861    435.72026   -312220.47 
    1630     60.97892    162471.71    72.178383    72.178384    36.010805          120    17267.531    19218.466   -34317.353   -1490.8247   -3890.3179   -1668.0381    72.178383    62.508314    36.010805    722.88126   -312219.58 
    1640    61.157505    162472.79    72.178543    72.178543    36.010885          120    17648.648    19007.602   -33900.747   -1250.0179   -3976.8042   -1604.6945    72.178543    62.508452    36.010885     918.5011   -312219.31 
    1650    61.452954    162476.07    72.179028    72.179029    36.011127          120    17932.485    18711.612   -34011.301   -993.57533   -4018.4106   -1720.8059    72.179028    62.508873    36.011127     877.5988   -312219.43 
    1660    61.662801    162481.42     72.17982     72.17982    36.011522          120    17478.511    18713.635   -33710.853   -1176.0964   -4210.3261   -1529.9369     72.17982    62.509558    36.011522    827.09792   -312219.53 
    1670    61.987723    162488.61    72.180885    72.180885    36.012053          120    17134.502    18759.456   -33733.461   -1280.7012   -4279.2194   -1582.7405    72.180885    62.510481    36.012053    720.16555   -312219.96 
    1680    61.818287    162497.28    72.182169     72.18217    36.012694          120    16826.548    18865.181   -34101.697   -1213.2183   -4036.8117   -1934.3642    72.182169    62.511593    36.012694    530.01061   -312219.74 
    1690    61.275568    162506.92    72.183597    72.183597    36.013406          120    16731.474    18863.719   -34477.136   -1054.3857   -3920.6548   -1953.2148    72.183597    62.512829    36.013406    372.68575   -312218.76 
    1700    61.532209     162517.1    72.185103    72.185104    36.014158          120    16779.609    18332.073   -34406.812   -1057.0655   -3843.2185   -2090.5157    72.185103    62.514134    36.014158    234.95687   -312219.37 
    1710    60.850257    162527.45    72.186635    72.186636    36.014922          120    16828.056    18005.223   -34334.326   -1099.1619   -3375.9273   -2137.0408    72.186635     62.51546    36.014922    166.31795    -312218.4 
    1720     61.36502     162537.8    72.188169    72.188169    36.015687          120     16863.45     18184.15   -34291.605   -1012.8205   -3117.3377   -1995.8473    72.188169    62.516789    36.015687    251.99821    -312219.4 
    1730    61.459151    162548.43    72.189742    72.189743    36.016472          120    16985.493    18552.691   -33737.025   -1112.3868   -3309.0264   -2088.1486    72.189742    62.518151    36.016472     600.3865   -312219.32 
    1740    61.801729    162560.05    72.191462    72.191463     36.01733          120    16608.707    18634.201   -33350.985   -1302.8861   -3452.3881   -1875.0737    72.191462    62.519641     36.01733    630.64087   -312220.47 
    1750    61.466869     162572.7    72.193334    72.193335    36.018264          120    16125.434    18421.398   -33468.188   -1184.1831   -3567.7575   -1591.8514    72.193334    62.521262    36.018264    359.54803   -312220.05 
    1760    60.992898    162585.67    72.195254    72.195255    36.019222          120    15875.517    18289.786   -34436.895   -1296.5083   -3746.7588   -1599.0878    72.195254    62.522925    36.019222   -90.530734   -312219.52 
    1770    60.228771    162597.81    72.197051    72.197051    36.020119          120     15539.08    17898.178   -35665.336   -1366.0878   -3708.2504   -1677.5841    72.197051    62.524481    36.020119   -742.69274   -312218.72 
    1780     60.18436    162607.59    72.198499    72.198499    36.020841          120    15194.994    17177.739   -36101.273   -1498.2797   -3676.4416   -1778.6757    72.198499    62.525735    36.020841   -1242.8469   -312219.39 
    1790    60.678223    162613.89     72.19943    72.199431    36.021306          120    14991.531    17032.641   -36189.108   -1371.1972   -3577.1979   -1813.0172     72.19943    62.526541    36.021306   -1388.3119   -312220.76 
    1800    60.909574    162616.53    72.199822    72.199822    36.021501          120    15347.186    17428.726    -35818.56   -1388.0474   -3529.8217   -1655.9943    72.199822     62.52688    36.021501    -1014.216   -312221.51 
    1810    60.842371     162616.5    72.199817    72.199817    36.021498          120    15785.065    17656.362   -35392.723   -1360.4001   -3715.0405   -1758.4055    72.199817    62.526876    36.021498   -650.43166   -312221.69 
    1820     61.00133    162614.75    72.199558    72.199559     36.02137          120    15549.597    17627.702   -34952.343   -1154.2403   -3821.3448   -1896.8537    72.199558    62.526652     36.02137   -591.68131   -312222.52 
    1830    60.577528    162611.57    72.199088    72.199089    36.021135          120    15533.353    17383.354   -34718.337   -1255.1558   -3835.3977   -2072.2788    72.199088    62.526245    36.021135   -600.54323   -312222.36 
    1840    60.193312    162607.01    72.198413    72.198414    36.020798          120    15581.926    17550.973   -34915.889   -1327.5306   -3999.0925   -1940.8788    72.198413     62.52566    36.020798   -594.32972   -312222.26 
    1850    60.002715    162601.18     72.19755    72.197551    36.020368          120    15904.554    17848.454   -35025.962   -1516.3829   -4102.0553   -1731.7156     72.19755    62.524913    36.020368   -424.31801   -312222.52 
    1860    59.270269    162594.48    72.196558    72.196558    36.019873          120    16176.236    17897.513   -35267.354   -1577.4859   -3864.6031   -1628.5713    72.196558    62.524054    36.019873   -397.86831   -312221.92 
    1870    59.768951    162587.05    72.195459     72.19546    36.019324          120    16364.632    17978.503   -35381.251   -1389.7555   -3882.5414   -1476.1522    72.195459    62.523102    36.019324   -346.03871   -312223.71 
    1880    59.160437    162579.07    72.194277    72.194277    36.018734          120    16433.303    18202.563   -35502.708   -1334.1833   -4188.5508   -1423.6731    72.194277    62.522078    36.018734   -288.94733   -312222.81 
    1890     58.71827    162570.66    72.193033    72.193033    36.018114          120    16203.116    18327.246   -35396.213    -1293.228   -3912.5858   -1470.5124    72.193033    62.521001    36.018114   -288.61696   -312222.66 
    1900      58.8409    162561.91    72.191737    72.191737    36.017467          120    16341.247    18335.812   -35211.045   -1307.5226   -3821.4377   -1578.5618    72.191737    62.519879    36.017467    -177.9951    -312223.7 
    1910    58.528197    162553.05    72.190426    72.190426    36.016813          120    16299.084    18177.171    -34727.33   -1610.1838   -3850.2035   -1302.4887    72.190426    62.518743    36.016813   -83.691692   -312223.43 
    1920    58.685666    162544.39    72.189143    72.189144    36.016173          120    16503.929    18177.684   -34155.675   -1678.1525   -4018.7471   -1503.2608    72.189143    62.517633    36.016173    175.31274   -312224.23 
    1930    58.736316    162536.49    72.187973    72.187974     36.01559          120    16345.091     18452.22     -33918.7   -1606.6725    -4077.226   -1837.2557    72.187973    62.516619     36.01559     292.8705   -312224.77 
    1940    58.825867    162529.62    72.186957    72.186957    36.015082          120    16511.341    18414.632   -33997.515   -1376.9891   -3806.5784   -2119.1895    72.186957    62.515739    36.015082    309.48586   -312225.29 
    1950    59.273316    162523.81    72.186097    72.186098    36.014654          120    16705.103    18441.776   -34205.104   -1210.4665   -3396.2238    -2157.751    72.186097    62.514994    36.014654    313.92511   -312226.66 
    1960    58.745739    162519.03    72.185389    72.185389      36.0143          120    16780.305    18444.385   -34402.802   -1115.8023   -3218.5077   -1957.7365    72.185389    62.514381      36.0143    273.96293   -312225.91 
    1970    58.690404    162515.12     72.18481    72.184811    36.014012          120    16711.316     18256.51   -34369.973   -1122.2949   -3482.5574    -1841.765     72.18481     62.51388    36.014012    199.28448   -312226.11 
    1980    58.883666    162511.88     72.18433     72.18433    36.013772          120    16367.917    18410.793   -34309.631   -1255.6431    -3518.538    -1943.443     72.18433    62.513464    36.013772    156.35977   -312226.64 
    1990    58.761227    162509.22    72.183936    72.183937    36.013576          120     16452.93    18562.552   -33995.458   -1495.1136   -3632.3137   -2078.7612    72.183936    62.513123    36.013576    340.00808   -312226.36 
    2000    58.665946    162507.53    72.183687    72.183687    36.013451          120    16791.066    18626.007    -33789.55   -1659.1508   -3444.2854   -1777.7171    72.183687    62.512907    36.013451    542.50726   -312226.19 
    2010    58.407742    162507.26    72.183646    72.183647    36.013431          120     17037.87    18319.303   -33305.304   -1622.0351   -3156.9041   -1875.5378    72.183646    62.512872    36.013431    683.95617   -312225.69 
    2020    58.375459    162508.71     72.18386    72.183861    36.013538          120    17472.499    18030.991   -33238.342    -1332.678   -3171.4951   -1730.3876     72.18386    62.513057    36.013538    755.04916   -312225.51 
    2030    58.977495    162511.98    72.184345    72.184345    36.013779          120    17442.826    18289.458   -33537.246   -1027.8999   -3361.3834   -1625.9675    72.184345    62.513477    36.013779    731.67895   -312226.22 
    2040    58.473148    162516.94    72.185079     72.18508    36.014146          120     17437.23    18331.125   -33960.433   -1110.3993   -3638.2366   -1782.6119    72.185079    62.514113    36.014146     602.6407   -312225.01 
    2050    59.090839     162523.2    72.186006    72.186007    36.014608          120    17231.934    18332.772   -34442.371   -1378.2489   -3835.9251    -1730.237    72.186006    62.514916    36.014608    374.11171    -312226.1 
    2060    58.734504    162530.15    72.187036    72.187037    36.015122          120    17023.809    18207.651   -34788.558   -1507.0414    -3848.027   -1738.6178    72.187036    62.515808    36.015122    147.63372   -312224.96 
    2070    58.710339    162537.22    72.188083    72.188083    36.015644          120    16985.303    17976.829   -34931.284    -1410.091   -3717.8177   -1666.2457    72.188083    62.516714    36.015644    10.282696    -312224.6 
    2080    59.139367    162544.04    72.189092    72.189092    36.016148          120    17043.286     17573.64   -34819.399   -1114.9731   -4063.1829   -1855.4753    72.189092    62.517588    36.016148   -67.491087    -312225.1 
    2090    59.502913    162550.42    72.190036    72.190037    36.016619          120    16867.591    17434.607   -34512.487   -935.52183   -4180.6974   -2030.2181    72.190036    62.518406    36.016619   -70.096303   -312225.44 
    2100    58.906902     162556.4    72.190922    72.190923    36.017061          120    16426.052    17897.997   -34047.607   -1144.7257   -3970.0048   -2142.7408    72.190922    62.519173    36.017061    92.147282   -312223.73 
    2110    59.074032    162562.38    72.191806    72.191807    36.017502          120    16286.751    18472.814   -33956.073   -1324.4346   -4011.8396   -1830.2995    72.191806    62.519939    36.017502    267.83083   -312223.59 
    2120    59.472432    162568.78    72.192754    72.192754    36.017975          120     16483.65    18731.944   -34090.501   -1208.7501   -4251.8534   -1721.3854    72.192754     62.52076    36.017975    375.03103   -312223.61 
    2130    59.934866    162575.84    72.193799      72.1938    36.018496          120    16626.802    18724.367   -34444.986   -1098.8615   -4230.0904   -1850.8555    72.193799    62.521665    36.018496    302.06092   -312223.86 
    2140    59.793371    162583.29    72.194902    72.194902    36.019046          120    16473.509    18394.764   -35267.946   -1048.1407    -4173.822   -1955.6448    72.194902     62.52262    36.019046   -133.22449   -312223.37 
    2150    60.055719    162590.16    72.195918    72.195919    36.019553          120    16307.714    18092.957   -35541.056   -903.60083   -4143.0003   -1897.9393    72.195918      62.5235    36.019553   -380.12876   -312223.27 
    2160    60.582696    162595.77    72.196749     72.19675    36.019968          120    15712.869    17958.275   -35528.046   -1002.8107   -3814.6713   -1930.8193    72.196749    62.524219    36.019968   -618.96705   -312224.01 
    2170    60.292795    162599.68    72.197327    72.197328    36.020256          120    15572.206    18019.799   -35259.545   -1301.0734   -3713.6143   -1682.6302    72.197327     62.52472    36.020256   -555.84672   -312222.73 
    2180    60.072374    162602.05    72.197678    72.197679    36.020432          120    15785.554    17990.307   -34947.739   -1434.6362   -3910.4553   -1564.1579    72.197678    62.525024    36.020432   -390.62612   -312221.77 
    2190    60.406786     162603.3    72.197864    72.197865    36.020524          120    15988.571    17829.159   -34731.247   -1223.7912   -4052.0954   -1784.3645    72.197864    62.525185    36.020524   -304.50572   -312221.86 
    2200     61.32839     162603.8    72.197938    72.197938    36.020561          120    16302.856    17915.189   -34249.134   -1091.4369    -4068.116   -2204.1277    72.197938    62.525249    36.020561   -10.363048   -312223.23 
    2210    61.556578    162604.16    72.197991    72.197992    36.020588          120    16396.469    17991.597    -34495.52   -1184.7671     -4249.04   -2285.2703    72.197991    62.525295    36.020588   -35.818166   -312223.43 
    2220    60.749796    162604.44    72.198032    72.198033    36.020608          120    16442.896    18053.622   -34642.265   -1197.5622   -4259.9355   -2249.2206    72.198032    62.525331    36.020608   -48.582316   -312221.27 
    2230    60.940528    162604.47    72.198037    72.198037     36.02061          120     16108.16    17815.435   -35302.629   -1269.2951   -4069.1379   -2516.5252    72.198037    62.525335     36.02061   -459.67817   -312221.59 
    2240    61.716291    162603.36    72.197872    72.197872    36.020528          120    15925.867    17352.143   -35679.381   -1409.4055   -3919.4876   -2583.9151    72.197872    62.525192    36.020528   -800.45721   -312222.77 
    2250     60.68195    162600.32    72.197422    72.197423    36.020304          120    16025.798    17413.762   -35985.961   -1502.3242   -3778.4695   -2297.3454    72.197422    62.524802    36.020304   -848.80024   -312220.14 
    2260     61.11251     162595.3     72.19668    72.196681    36.019934          120    16118.391    17495.863   -35531.721   -1378.1811   -3792.3374   -1846.5207     72.19668     62.52416    36.019934   -639.15592   -312220.75 
[...]
   99200    59.907011    162659.01    72.206108    72.206108    36.024637          120    17400.476    18192.986   -34518.936   -933.08274   -3844.8746   -2054.2286    72.206108    62.532324    36.024637    358.17516   -312232.95 
   99210    59.711473    162658.21    72.205989     72.20599    36.024578          120    17359.913    18175.285   -35126.712    -921.0679   -3720.0926   -1965.9476    72.205989    62.532222    36.024578    136.16228   -312232.23 
   99220    60.467882    162657.77    72.205925    72.205925    36.024546          120    17341.133    18369.476   -35483.431    -1000.866   -3627.1135   -1701.5683    72.205925    62.532166    36.024546    75.725805   -312233.42 
   99230    60.141057    162657.59    72.205898    72.205899    36.024533          120    17310.125    18422.842   -34941.102   -947.30957    -3598.898   -1232.3888    72.205898    62.532143    36.024533    263.95535   -312232.62 
   99240    60.252508    162658.11    72.205974    72.205975    36.024571          120    17615.381    18245.913   -34337.123   -739.56493   -3542.4021    -1497.719    72.205974    62.532209    36.024571    508.05705   -312232.64 
   99250    60.765772    162659.86    72.206234    72.206235      36.0247          120    17672.275    18476.692   -34517.214    -1092.525   -4010.0975   -1486.5528    72.206234    62.532434      36.0247    543.91764   -312233.58 
   99260    60.567764    162663.05    72.206705    72.206706    36.024935          120    17571.899    18599.203       -34315   -1401.0506   -3985.2452   -1647.0048    72.206705    62.532842    36.024935    618.70078    -312233.2 
   99270    60.300746    162667.69    72.207392    72.207392    36.025278          120    16921.951    18624.589   -34853.033   -1363.0376   -4047.8001   -1768.6446    72.207392    62.533436    36.025278    231.16889   -312232.59 
   99280    60.385869     162672.9    72.208164    72.208164    36.025663          120    16803.858    18122.766   -35400.215   -1225.1299   -4161.6214   -2028.2449    72.208164    62.534105    36.025663   -157.86351   -312232.58 
   99290     60.26689    162677.83    72.208893    72.208893    36.026027          120    17170.439     18002.16   -35271.795   -1173.4769   -4125.5163   -1957.4421    72.208893    62.534736    36.026027   -33.064969   -312231.86 
   99300     60.65124    162682.61      72.2096    72.209601     36.02638          120    17338.049    17760.705   -35213.671   -1082.2954   -4207.6585   -1911.2814      72.2096    62.535349     36.02638   -38.305754   -312232.63 
   99310    60.325463    162687.32    72.210297    72.210298    36.026727          120    17105.471    17915.238   -34754.882   -1078.8383   -4120.6525   -1945.6488    72.210297    62.535953    36.026727    88.608827   -312232.06 
   99320    59.751564    162692.23    72.211023    72.211023    36.027089          120    17010.102    18172.652   -34576.285   -1208.1065   -4001.2049   -1707.0167    72.211023    62.536581    36.027089    202.15597   -312230.41 
   99330    60.515049    162697.55     72.21181     72.21181    36.027482          120    17077.962     18254.23   -35162.507   -1265.1823    -3800.042   -1719.7584     72.21181    62.537262    36.027482    56.561727   -312232.07 
   99340     60.82584    162703.03    72.212621    72.212622    36.027887          120    16797.403    18061.463   -34759.314   -1197.4314   -4002.6809   -1593.9166    72.212621    62.537965    36.027887    33.184237   -312232.86 
   99350    60.361026    162708.58    72.213442    72.213443    36.028296          120     16709.99    17689.516   -34408.331   -1153.4409   -4043.8752   -1925.0495    72.213442    62.538676    36.028296   -2.9415991    -312232.1 
   99360    61.112373    162714.06    72.214252    72.214253      36.0287          120    17074.655    17423.062   -35125.403   -1225.7627     -4156.29   -1721.4218    72.214252    62.539377      36.0287   -209.22865   -312233.49 
   99370    60.461698    162719.05    72.214992    72.214992    36.029069          120     17198.62    17583.423   -35248.763   -1301.9952   -4120.7316   -1894.7587    72.214992    62.540018    36.029069   -155.57335   -312231.88 
   99380     60.63148    162723.56    72.215658    72.215658    36.029402          120    16741.704    17729.979    -35387.19   -1152.1598   -3903.2266   -1994.7956    72.215658    62.540595    36.029402    -305.1689   -312232.45 
   99390    60.604284    162727.27    72.216207    72.216207    36.029676          120    16645.751    17701.707   -35578.306   -949.60957   -3785.7841   -1953.9071    72.216207     62.54107    36.029676   -410.28301   -312232.39 
   99400    60.106227    162729.96    72.216604    72.216605    36.029874          120    16808.902    17669.958   -35493.325   -972.73581   -3770.2135    -1933.061    72.216604    62.541415    36.029874   -338.15507   -312231.63 
   99410    60.411357    162731.81    72.216879    72.216879    36.030011          120    17007.057    17768.798   -35185.095   -943.92717   -3854.6647   -2042.5502    72.216879    62.541652    36.030011   -136.41337   -312232.36 
   99420    59.927782     162733.3    72.217098    72.217099    36.030121          120    17343.713    17643.587   -34977.436    -1159.703   -4036.5613   -2244.6115    72.217098    62.541842    36.030121    3.2881496   -312231.46 
   99430    60.238695    162734.79    72.217319    72.217319     36.03023          120    17307.339    18040.541   -34993.496    -1336.978   -4105.3281   -1894.7825    72.217319    62.542033     36.03023    118.12791   -312232.37 
   99440     60.45738    162736.51    72.217573    72.217574    36.030358          120    16821.938    18170.048   -35108.425    -1060.597    -3728.456   -1849.6017    72.217573    62.542254    36.030358    -38.81283   -312232.69 
   99450    60.533927    162738.12    72.217811    72.217812    36.030476          120    16723.518    17998.897   -35531.418   -782.11285   -3709.8532   -1866.4112    72.217811     62.54246    36.030476   -269.66753   -312232.72 
   99460    60.460911    162739.03    72.217947    72.217948    36.030544          120    16600.338    17907.537   -35834.344   -644.50477   -4028.9754   -1649.5077    72.217947    62.542577    36.030544   -442.15649   -312232.88 
   99470    60.344374    162738.82    72.217915    72.217916    36.030528          120    16596.529    17590.923   -35716.574   -775.22093   -3958.2574    -1707.376    72.217915     62.54255    36.030528   -509.70745   -312232.59 
   99480    59.701959    162737.31    72.217693    72.217693    36.030417          120    16950.045    17317.523   -35549.299   -979.14849     -4056.54   -1877.5769    72.217693    62.542357    36.030417   -427.24352   -312231.39 
   99490    60.373675    162734.69    72.217305    72.217305    36.030223          120    17106.369    17162.647   -35442.073    -1018.653   -4083.2951   -1966.3526    72.217305    62.542021    36.030223   -391.01884   -312233.09 
   99500    60.375674    162731.08    72.216771    72.216772    36.029957          120     16910.84    17444.541   -35301.337   -1102.7615   -4429.1653   -1771.1611    72.216771    62.541559    36.029957   -315.31886   -312233.18 
   99510    60.232806    162726.69    72.216121    72.216122    36.029633          120    16919.411    17420.187   -34863.027   -1026.0625   -4351.5784   -1906.8063    72.216121    62.540996    36.029633    -174.4765   -312233.24 
   99520    60.213206    162721.81      72.2154      72.2154    36.029273          120    16836.396    17722.755   -35225.111   -1039.0289   -4274.2086   -1852.6032      72.2154    62.540371    36.029273   -221.98682   -312233.25 
   99530    60.390577    162716.34    72.214591    72.214591    36.028869          120    16733.015    17783.007     -35610.7   -976.84329   -4073.9857   -1651.0118    72.214591    62.539671    36.028869   -364.89275   -312233.46 
   99540    60.512115    162710.01    72.213654    72.213655    36.028402          120     16724.14    17767.916   -35211.218   -830.78237   -3876.8005   -1691.4675    72.213654     62.53886    36.028402   -239.72075   -312234.04 
   99550    59.580817    162703.09    72.212629     72.21263    36.027891          120    17028.396    17857.407   -35094.143   -948.99127   -4068.7554   -1631.8647    72.212629    62.537972    36.027891   -69.446546   -312232.15 
   99560    60.019191    162696.04    72.211587    72.211588    36.027371          120    17348.963    18209.059   -34880.813   -1070.8893   -3877.1588    -1887.561    72.211587     62.53707    36.027371    225.73635   -312233.14 
   99570    59.875743    162689.58    72.210631    72.210632    36.026894          120    17579.796     18472.97   -34696.526    -968.9279   -3611.0043   -2078.5457    72.210631    62.536242    36.026894     452.0801   -312232.98 
   99580    59.862021    162684.28    72.209847    72.209847    36.026503          120    17432.975    18602.817   -34249.831   -992.78108   -3770.8106   -2020.9832    72.209847    62.535562    36.026503    595.32052   -312232.95 
   99590    60.299581    162680.51    72.209289     72.20929    36.026225          120    17555.847    18725.262   -34231.825   -962.06156   -3850.4078   -2020.8071    72.209289     62.53508    36.026225    683.09469   -312234.05 
   99600    60.239483    162678.46    72.208986    72.208986    36.026073          120    17519.546    18781.269   -34746.982   -1022.6005   -3753.8867   -1848.5687    72.208986    62.534817    36.026073    517.94444   -312234.16 
   99610    59.497218    162677.73    72.208878    72.208878    36.026019          120    17576.112    18298.989   -35198.336   -1108.0659   -3985.1381   -1928.1013    72.208878    62.534723    36.026019    225.58818   -312232.32 
   99620    60.232713    162677.57    72.208855    72.208855    36.026008          120     17139.48    17956.488   -35342.626   -1046.8847   -4134.6701   -1573.7835    72.208855    62.534703    36.026008   -82.219223    -312234.1 
   99630    59.940759    162677.29    72.208813    72.208813    36.025987          120    17265.242     18168.44   -35613.498   -915.82928   -4217.0398   -1416.9322    72.208813    62.534667    36.025987   -59.938768   -312233.73 
   99640    59.621924     162676.9    72.208755    72.208755    36.025958          120    17431.777    18126.901   -35129.668   -992.15444   -4222.2157   -1627.1438    72.208755    62.534617    36.025958    143.00346   -312233.44 
   99650    59.514317    162676.75    72.208732    72.208733    36.025947          120     16838.23    18031.177   -35175.976    -987.3335   -4096.4936   -1860.1215    72.208732    62.534597    36.025947   -102.18961    -312233.1 
   99660    60.147074    162676.36    72.208675    72.208675    36.025918          120    16905.046    17681.077   -35271.241   -854.73591   -3816.0876   -1670.7273    72.208675    62.534547    36.025918   -228.37265   -312234.19 
   99670    59.911573     162675.4    72.208534    72.208534    36.025848          120    16996.377    17601.462   -35056.223   -1010.7187   -4020.6902   -1535.6588    72.208534    62.534425    36.025848   -152.79453   -312233.76 
   99680    60.275805    162674.08    72.208338    72.208339     36.02575          120    17189.233    17903.741   -34867.071   -902.48276   -3854.2327   -1788.6401    72.208338    62.534256     36.02575    75.300815   -312234.65 
   99690     60.06511    162672.95    72.208171    72.208172    36.025667          120    17057.882    18159.975   -34524.679   -849.66905   -3743.6836   -1516.6597    72.208171    62.534111    36.025667    231.05932   -312234.53 
   99700    59.900579    162672.32    72.208078    72.208078     36.02562          120    17208.547    17747.152   -34897.316   -823.58128   -3809.4439   -1455.0068    72.208078     62.53403     36.02562    19.460753   -312234.25 
   99710    59.342658    162671.78    72.207997    72.207998     36.02558          120    17334.369    17515.327   -35189.958   -963.52847   -3918.2544   -1473.2607    72.207997    62.533961     36.02558   -113.42081    -312233.3 
   99720    59.549543    162670.96    72.207876    72.207877    36.025519          120    17006.782    17633.084   -35247.535    -853.2832   -3771.6803    -1555.195    72.207876    62.533856    36.025519   -202.55655   -312233.65 
   99730    59.948032    162669.69    72.207688    72.207688    36.025425          120    17087.026    17618.313   -34864.097    -1004.967   -3895.1281   -1762.5274    72.207688    62.533693    36.025425   -52.919417   -312234.31 
   99740    59.695817     162668.3    72.207482    72.207483    36.025323          120    17436.964    17665.949   -34646.438   -1216.7704    -3891.598   -1852.8129    72.207482    62.533515    36.025323     152.1585   -312233.76 
   99750    59.816484     162667.3    72.207334    72.207335    36.025249          120    17514.254    18154.553   -34926.087   -1168.3574   -3628.5622   -1938.5178    72.207334    62.533386    36.025249    247.57344   -312233.86 
   99760    59.621025     162666.9    72.207276    72.207276     36.02522          120    17302.853    18070.303   -34646.987   -1202.0202   -3690.8247    -1701.245    72.207276    62.533336     36.02522    242.05664   -312233.62 
   99770    59.805801     162667.1    72.207306    72.207306    36.025235          120    17112.194    17958.758   -34505.757   -1168.0135   -3677.4531   -1738.9664    72.207306    62.533362    36.025235    188.39822   -312234.09 
   99780    59.872899    162667.81     72.20741     72.20741    36.025287          120    17001.394    18214.858   -34466.201   -992.56376    -3992.321   -1999.5314     72.20741    62.533452    36.025287    250.01682    -312234.5 
   99790    59.794215    162669.15    72.207608    72.207609    36.025386          120    17636.458    18442.783   -35160.059   -822.64776   -3958.8609   -2021.9441    72.207608    62.533624    36.025386    306.39398   -312234.38 
   99800    59.795466     162671.2    72.207912    72.207912    36.025537          120    17326.965     18257.97   -35222.892   -951.32148   -4077.5567    -1884.633    72.207912    62.533887    36.025537    120.68105   -312234.23 
   99810    59.896798    162673.63    72.208272    72.208272    36.025717          120    17195.045    18239.847   -34762.797    -1067.844   -4113.3268   -1852.4696    72.208272    62.534198    36.025717    224.03175    -312234.4 
   99820    59.774602    162676.62    72.208713    72.208714    36.025937          120    17548.432    18375.046   -34884.527   -1175.8765   -4205.6399   -1895.7996    72.208713    62.534581    36.025937    346.31676   -312234.18 
   99830    59.418554     162680.5    72.209287    72.209288    36.026223          120    17600.997    18328.432   -34699.257   -1345.8242   -4186.6322    -1905.531    72.209287    62.535078    36.026223     410.0575   -312233.35 
   99840    59.849682    162685.38    72.210009     72.21001    36.026584          120    17547.779    18127.323   -34827.784   -1307.7904   -4128.0825   -1881.5524    72.210009    62.535703    36.026584    282.43937   -312233.97 
   99850    60.435933    162690.95    72.210834    72.210835    36.026995          120    17460.397    17805.779   -34810.038   -998.13924     -3982.22   -1899.0802    72.210834    62.536418    36.026995    152.04611   -312234.96 
   99860    59.544872    162696.96    72.211722    72.211723    36.027438          120    17116.174    17871.353   -34453.167   -1115.1436   -3590.7684   -2061.6356    72.211722    62.537187    36.027438    178.12015   -312233.49 
   99870     59.91289    162703.41    72.212677    72.212678    36.027915          120    16942.438    18094.259   -34384.709   -940.89024   -3701.2592   -1740.1218    72.212677    62.538013    36.027915    217.32928   -312234.27 
   99880    59.885546    162710.34    72.213702    72.213703    36.028426          120    17010.927    18173.691   -35070.984   -893.15413   -3992.1139   -1935.4558    72.213702    62.538902    36.028426      37.8782    -312233.8 
   99890    59.734638     162717.3    72.214732    72.214732     36.02894          120    16844.877    17736.104   -35431.432   -1350.1649   -3900.6203   -2062.2421    72.214732    62.539793     36.02894   -283.48359   -312233.43 
   99900    60.053984    162723.55    72.215657    72.215658    36.029401          120    16760.106     17588.52   -35499.042   -1188.0082    -3890.504   -1632.3437    72.215657    62.540594    36.029401   -383.47202   -312233.86 
   99910    59.894635    162728.83    72.216438    72.216438    36.029791          120    16553.965    17884.165   -35430.992   -1104.3066   -3776.3636   -1837.1406    72.216438     62.54127    36.029791   -330.95395   -312233.42 
   99920     59.88591    162733.21    72.217086    72.217086    36.030114          120    16445.748     17903.18   -35427.305   -947.36683   -3789.1704   -1605.9223    72.217086    62.541831    36.030114   -359.45888   -312232.91 
   99930    59.547409    162736.62     72.21759     72.21759    36.030366          120    16107.186    17794.784    -35358.82   -983.90903   -4001.1622   -1864.4734     72.21759    62.542268    36.030366   -485.61627   -312232.14 
   99940    60.200255    162738.79    72.217911    72.217912    36.030526          120    16138.155    17546.201   -35207.332   -1026.4686   -4069.2505   -2079.8309    72.217911    62.542546    36.030526   -507.65879   -312233.37 
   99950    60.105704    162739.63    72.218035    72.218036    36.030588          120    16348.907      17707.1   -35803.971   -1306.2549   -4168.2302   -2092.4985    72.218035    62.542654    36.030588   -582.65473   -312232.71 
   99960    60.257663    162739.03    72.217946    72.217946    36.030543          120    16556.405    17655.417   -35443.096   -1255.7165   -4027.9255   -2018.0786    72.217946    62.542576    36.030543   -410.42471   -312232.74 
   99970    60.661534    162737.37    72.217701    72.217702    36.030421          120    16927.732    17603.986   -35211.848   -1058.3912   -3709.4459   -1890.0668    72.217701    62.542365    36.030421   -226.70989   -312233.25 
   99980    60.544411    162735.03    72.217355    72.217356    36.030249          120    16881.656    17581.168   -35682.552    -822.8812     -3998.97   -1454.7381    72.217355    62.542065    36.030249   -406.57623   -312232.78 
   99990    60.414101     162731.7    72.216862    72.216862    36.030003          120    17023.807     17492.92   -35751.122    -903.9107   -4132.7344   -1313.4423    72.216862    62.541638    36.030003   -411.46488   -312232.37 
  100000    60.465035    162727.36    72.216221    72.216221    36.029683          120    16991.458    17600.849   -35280.185   -1094.5779   -4125.4656   -1969.5011    72.216221    62.541082    36.029683   -229.29251   -312232.73 
Loop time of 35729.8 on 1 procs for 100000 steps with 14848 atoms

Performance: 0.242 ns/day, 99.249 hours/ns, 2.799 timesteps/s
99.9% CPU use with 1 MPI tasks x no OpenMP threads

MPI task timing breakdown:
Section |  min time  |  avg time  |  max time  |%varavg| %total
---------------------------------------------------------------
Pair    | 31822      | 31822      | 31822      |   0.0 | 89.06
Bond    | 0.066529   | 0.066529   | 0.066529   |   0.0 |  0.00
Kspace  | 1486.8     | 1486.8     | 1486.8     |   0.0 |  4.16
Neigh   | 1554.4     | 1554.4     | 1554.4     |   0.0 |  4.35
Comm    | 42.392     | 42.392     | 42.392     |   0.0 |  0.12
Output  | 1.3558     | 1.3558     | 1.3558     |   0.0 |  0.00
Modify  | 806.62     | 806.62     | 806.62     |   0.0 |  2.26
Other   |            | 15.92      |            |       |  0.04

Nlocal:    14848 ave 14848 max 14848 min
Histogram: 1 0 0 0 0 0 0 0 0 0
Nghost:    46895 ave 46895 max 46895 min
Histogram: 1 0 0 0 0 0 0 0 0 0
Neighs:    1.01136e+07 ave 1.01136e+07 max 1.01136e+07 min
Histogram: 1 0 0 0 0 0 0 0 0 0

Total # of neighbors = 10113588
Ave neighs/atom = 681.141
Ave special neighs/atom = 0
Neighbor list builds = 4594
Dangerous builds = 0
 
All done!
Total wall time: 10:06:50
