LAMMPS (16 Mar 2018)
Reading data file ...
  triclinic box = (0 0 0) to (9.208 7.97436 18.376) with tilt (-4.604 0 0)
  1 by 1 by 1 MPI processor grid
  reading atoms ...
  116 atoms
Finding 1-2 1-3 1-4 neighbors ...
  special bond factors lj:   0          0          0         
  special bond factors coul: 0          0          0         
  0 = max # of 1-2 neighbors
  0 = max # of 1-3 neighbors
  0 = max # of 1-4 neighbors
  1 = max # of special neighbors
Replicating atoms ...
  triclinic box = (0 0 0) to (73.664 63.7949 36.752) with tilt (-36.832 0 0)
  1 by 1 by 1 MPI processor grid
  14848 atoms
Finding 1-2 1-3 1-4 neighbors ...
  special bond factors lj:   0          0          0         
  special bond factors coul: 0          0          0         
  0 = max # of 1-2 neighbors
  0 = max # of 1-3 neighbors
  0 = max # of 1-4 neighbors
  1 = max # of special neighbors
  Time spent = 0.003438 secs
PPPM initialization ...
WARNING: System is not charge neutral, net charge = -0.2048 (../kspace.cpp:302)
  using 12-bit tables for long-range coulomb (../kspace.cpp:321)
  G vector (1/distance) = 0.201681
  grid = 36 50 24
  stencil order = 5
  estimated absolute RMS force accuracy = 0.00105653
  estimated relative force accuracy = 7.33721e-05
  using double precision FFTs
  3d grid and FFT values/proc = 65395 43200
Neighbor list info ...
  update every 1 steps, delay 0 steps, check yes
  max neighbors/atom: 2000, page size: 100000
  master list distance cutoff = 15.3
  ghost atom cutoff = 15.3
  binsize = 7.65, bins = 15 9 5
  3 neighbor lists, perpetual/occasional/extra = 3 0 0
  (1) pair morse, perpetual
      attributes: half, newton on
      pair build: half/bin/newton/tri
      stencil: half/bin/3d/newton/tri
      bin: standard
  (2) pair buck, perpetual, copy from (1)
      attributes: half, newton on
      pair build: copy
      stencil: none
      bin: none
  (3) pair lj/cut/coul/long, perpetual, copy from (1)
      attributes: half, newton on
      pair build: copy
      stencil: none
      bin: none
Setting up Verlet run ...
  Unit style    : metal
  Current step  : 0
  Time step     : 0.001
Per MPI rank memory allocation (min/avg/max) = 145.7 | 145.7 | 145.7 Mbytes
Step Temp Volume Cella Cellb Cellc CellGamma Pxx Pyy Pzz Pxy Pxz Pyz Lx Ly Lz Press PotEng 
       0           80    172711.88       73.664    73.664001       36.752          120   -210571.66   -210578.92   -281566.72    7.5987134   -2.0380881    2.7193787       73.664    63.794896       36.752    -234239.1   -309191.56 
      10    254.69256    172457.25    73.627781    73.627782     36.73393          120   -213854.78   -213920.03   -261354.89    69.990476   -4.7073187   -96.803987    73.627781    63.763529     36.73393    -229709.9   -309595.53 
      20    496.52569    171721.93    73.522988    73.522988    36.681647          120   -212035.53   -211757.89   -199942.48    22.980474    -151.6102   -204.65733    73.522988    63.672776    36.681647   -207911.97   -310187.48 
      30    434.38101    170660.88    73.371245    73.371245     36.60594          120   -191448.36   -190986.96   -114903.22   -175.97374   -532.01389   -263.45966    73.371245    63.541362     36.60594   -165779.51   -310236.35 
      40    194.37028    169575.67    73.215395    73.215396    36.528185          120   -159340.52   -159064.17   -36007.184   -371.90189   -952.05464   -316.06492    73.215395    63.406393    36.528185   -118137.29   -309897.77 
      50    258.50638    168679.82    73.086237    73.086238    36.463746          120   -122969.46   -122855.51    -1488.793   -423.44665   -1087.2689   -496.01006    73.086237    63.294539    36.463746   -82437.922   -310083.22 
      60     585.8361    167968.08    72.983297    72.983298    36.412388          120   -89452.116     -89275.9   -35128.549   -549.55346   -1979.0832   -410.27382    72.983297     63.20539    36.412388   -71285.522   -310774.27 
      70    782.61439    167349.67    72.893619     72.89362    36.367646          120   -58005.754   -57532.319   -95347.653   -905.32825   -2525.7325   -255.31778    72.893619    63.127727    36.367646   -70295.242   -311266.54 
      80    632.77448     166764.4    72.808543    72.808544    36.325201          120    -31149.83   -31087.745   -132603.35   -1418.8656   -2904.5954    141.12248    72.808543    63.054049    36.325201   -64946.975   -311092.14 
      90    368.87269    166198.11    72.726036    72.726037    36.284037          120   -16067.329   -16347.181   -141269.38   -1704.1259   -3536.1332    489.98288    72.726036    62.982596    36.284037    -57894.63   -310664.14 
     100    413.81481    165660.57    72.647546    72.647546    36.244877          120    1280.0781    1731.1045   -118347.63   -1595.6279   -3472.0979    295.17074    72.647546    62.914621    36.244877   -38445.483   -310807.69 
     110    569.52694    165182.86    72.577647    72.577648    36.210003          120    18803.312    19521.397   -74752.226   -1603.7904   -3163.4426    133.66464    72.577647    62.854087    36.210003   -12142.506   -311179.61 
     120    529.97678    164797.47    72.521159     72.52116    36.181821          120    25341.666    26059.685   -24698.691   -1627.7318   -3265.0653   -264.49679    72.521159    62.805167    36.181821    8900.8866   -311183.51 
     130    418.07805    164516.57    72.479932    72.479933    36.161252          120    19893.403    21264.281    12825.909   -1757.9682   -3489.4473   -524.42533    72.479932    62.769463    36.161252    17994.531   -311031.07 
     140    399.85168    164328.66    72.452326    72.452326    36.147479          120    13269.497    14155.577     19107.05   -1604.7721   -3455.3979   -482.03211    72.452326    62.745555    36.147479    15510.708    -311045.7 
     150    469.62335    164205.58    72.434232    72.434233    36.138452          120     6312.153    7270.4028   -11053.965   -1714.0049   -3102.2882   -207.70914    72.434232    62.729886    36.138452    842.86348   -311237.17 
     160     504.9347    164107.03     72.41974     72.41974    36.131221          120   -3453.3149   -1294.6439   -50976.411   -1678.6684   -3070.2305  -0.84182569     72.41974    62.717335    36.131221    -18574.79   -311376.69 
     170    445.92592    163994.54    72.403189     72.40319    36.122964          120   -7557.1289   -4661.8898   -78195.624   -1180.2366   -3319.8233    -152.2175    72.403189    62.703002    36.122964   -30138.214   -311335.44 
     180    372.69613    163849.71    72.381868    72.381868    36.112326          120   -2687.5363     295.2624   -89209.869   -890.54488   -3169.8317   -280.56064    72.381868    62.684537    36.112326   -30534.047   -311253.97 
     190    374.50986    163676.48     72.35635    72.356351    36.099595          120    3757.3934    6643.9498   -79733.589   -479.66414   -2630.3604    8.9808891     72.35635    62.662438    36.099595   -23110.748   -311308.99 
     200    406.74523    163492.01    72.329157    72.329158    36.086028          120    7703.2245     10685.52   -54927.006   -626.82384   -2342.3249   -148.38045    72.329157    62.638888    36.086028   -12179.421   -311426.82 
     210    391.87386     163316.9    72.303325    72.303326     36.07314          120    10882.029    14092.626   -29620.312   -580.86519   -2553.1668    66.444182    72.303325    62.616517     36.07314   -1548.5522   -311455.86 
     220    351.67424    163167.57    72.281282    72.281282    36.062143          120    13340.357    15644.315   -14162.123   -148.09874   -2820.5164  -0.76528491    72.281282    62.597427    36.062143    4940.8496   -311429.78 
     230    339.26149    163050.34    72.263966    72.263967    36.053504          120    13723.891    14563.445   -14274.561   -310.61267   -3398.1878   -521.43881    72.263966    62.582431    36.053504    4670.9247   -311451.95 
     240     351.9012    162959.06    72.250479    72.250479    36.046774          120     11284.13    11300.466   -26874.194    -396.2606   -3743.3513   -440.60846    72.250479     62.57075    36.046774   -1429.8659   -311522.07 
     250    355.79612    162878.76    72.238609     72.23861    36.040853          120    8390.4517    8337.2053   -44924.572   -386.06695   -3581.2405   -730.47473    72.238609    62.560471    36.040853   -9398.9718   -311578.15 
     260    333.04211    162794.05    72.226085    72.226085    36.034604          120     8668.613    8870.5555   -59097.916   -558.56852   -3304.1202   -773.29063    72.226085    62.549625    36.034604   -13852.916    -311582.5 
     270    306.33962    162697.43    72.211792    72.211793    36.027473          120    10322.574    10843.505   -63474.063   -935.42984   -3030.5144   -124.21531    72.211792    62.537247    36.027473   -14102.661   -311574.43 
     280    302.85962    162590.08    72.195906    72.195907    36.019547          120    12554.548    14341.508   -56114.453   -720.95979   -2619.7352    314.90312    72.195906    62.523489    36.019547   -9739.4656   -311607.44 
     290    306.11806    162481.02    72.179761    72.179762    36.011493          120    16022.782    18904.271   -41384.483     -961.775   -2619.9862    559.05221    72.179761    62.509508    36.011493   -2152.4766   -311654.74 
     300    298.02805     162383.2    72.165273    72.165274    36.004264          120    18545.252    21671.677   -27363.388   -1092.8377   -2584.5467    321.42477    72.165273    62.496961    36.004264    4284.5137   -311679.18 
     310    281.16396    162306.01    72.153836    72.153836    35.998558          120    18270.394    21670.227   -18440.159   -832.99779   -3270.7378   -2.7901778    72.153836    62.487055    35.998558    7166.8206   -311684.82 
     320    272.54659    162251.39    72.145742    72.145743     35.99452          120    15846.171     19288.37   -17650.026   -807.76206   -3656.8428   -306.06599    72.145742    62.480046     35.99452    5828.1717   -311703.68 
     330    271.84071    162214.03    72.140203    72.140204    35.991757          120    13755.049    16868.028   -24192.914   -987.21233   -3691.0201   -422.19468    72.140203    62.475249    35.991757    2143.3879   -311736.54 
     340     267.4833    162185.13    72.135919    72.135919    35.989619          120    13256.978    16008.111   -35539.142    -508.6481    -3977.067   -1009.1863    72.135919    62.471539    35.989619   -2091.3511   -311762.17 
     350     255.0967    162156.23    72.131635    72.131635    35.987481          120    13421.227    16302.463   -44347.004   -506.08054   -3356.0099   -1373.1521    72.131635    62.467829    35.987481   -4874.4378   -311770.97 
     360    239.45319    162122.53    72.126637    72.126638    35.984988          120    14367.406    17475.678   -45984.243   -667.45593   -3026.8815   -1853.7095    72.126637    62.463501    35.984988   -4713.7198   -311770.77 
     370    235.44518    162084.74    72.121032    72.121033    35.982192          120     16140.67    19225.002   -42033.858   -686.23272   -2918.3402   -1613.5967    72.121032    62.458647    35.982192   -2222.7286   -311791.89 
     380     235.4645     162047.6    72.115524    72.115525    35.979444          120    17820.249    20646.832    -34682.18   -722.21051   -2972.0545   -1258.6139    72.115524    62.453877    35.979444    1261.6333   -311820.05 
     390    230.60487    162017.02    72.110987    72.110987     35.97718          120    17987.021     21309.27    -27044.49   -623.11849   -3073.3192   -1134.4631    72.110987    62.449947     35.97718    4083.9335   -311838.58 
     400    220.53772    161997.13    72.108036    72.108036    35.975708          120    17531.633    21026.564   -22402.185   -579.02874   -3306.3551   -861.70559    72.108036    62.447392    35.975708    5385.3372   -311846.08 
     410    215.91175    161988.97    72.106825    72.106826    35.975104          120    17437.825    20838.271   -23152.403   -636.00107   -3697.2167   -647.07008    72.106825    62.446343    35.975104    5041.2311   -311862.52 
     420    211.53133    161990.64    72.107074    72.107074    35.975228          120    17143.949    20635.265   -27458.339   -950.68847    -4061.583    -577.6906    72.107074    62.446558    35.975228    3440.2917   -311878.37 
     430    206.34438    161998.17    72.108191    72.108191    35.975785          120     16333.17     19437.48   -33448.715   -1152.1955   -4003.5647   -168.60745    72.108191    62.447525    35.975785    773.97819   -311891.99 
     440    198.29016    162006.33    72.109401    72.109401    35.976389          120    15879.102    18413.809   -38446.096   -1154.3567   -3567.9852    260.63292    72.109401    62.448574    35.976389    -1384.395   -311898.93 
     450    190.89385     162011.4    72.110154    72.110154    35.976764          120     16737.15    18792.352   -40319.698   -1174.1166    -3096.782    20.351298    72.110154    62.449226    35.976764   -1596.7322   -311905.72 
     460    187.26562    162013.28    72.110433    72.110433    35.976904          120    18431.779    19498.121    -38895.78   -787.08664    -2531.309    14.791064    72.110433    62.449467    35.976904   -321.96034   -311919.37 
     470     185.9743    162014.53    72.110617    72.110618    35.976996          120    19764.743    19796.211   -34431.597   -656.03252    -2405.884   -214.92139    72.110617    62.449627    35.976996    1709.7854   -311936.66 
     480    181.92985    162018.81    72.111253    72.111253    35.977313          120    20160.167    20333.617    -29161.29   -604.73572   -3171.0642   -347.41701    72.111253    62.450178    35.977313    3777.4979   -311948.35 
     490    175.70489    162029.43    72.112828    72.112829    35.978099          120    20169.914    20899.394   -26653.252    -324.6995   -3632.7981    22.054697    72.112828    62.451542    35.978099    4805.3521   -311955.09 
     500    172.98466    162047.57     72.11552    72.115521    35.979442          120    19351.821    21309.531   -27448.757   -358.43364   -3721.8793    272.42817     72.11552    62.453873    35.979442    4404.1985   -311967.26 
     510    170.53657    162071.81    72.119115    72.119115    35.981235          120    18035.226     20502.82   -30106.861   -290.50606    -3772.954    528.83918    72.119115    62.456986    35.981235    2810.3951   -311980.02 
     520    164.95351    162098.77    72.123113    72.123114     35.98323          120    17125.408    19056.909   -34039.482   -130.81306   -3655.3312    479.14216    72.123113    62.460449     35.98323    714.27801   -311986.25 
     530    160.27678    162124.55    72.126937    72.126937    35.985138          120    16952.865    18165.884   -37582.778    43.368504   -3359.2884    379.87439    72.126937     62.46376    35.985138   -821.34311   -311993.06 
     540    154.40977    162146.63    72.130212    72.130212    35.986772          120    17383.152    18250.532   -38614.564    151.30346   -3140.9757    57.178031    72.130212    62.466596    35.986772   -993.62657   -311997.31 
     550     153.2008       162165    72.132935    72.132936     35.98813          120    17693.406    18451.958   -36741.745   -42.695654    -2853.863    136.77399    72.132935    62.468955     35.98813   -198.79386   -312009.45 
     560    149.16959    162181.46    72.135375    72.135376    35.989348          120    18018.301    19051.516   -33303.915   -100.88089   -2799.3821    78.390971    72.135375    62.471068    35.989348    1255.3007   -312015.92 
     570    145.44072    162198.69     72.13793     72.13793    35.990622          120    18222.424    19808.146   -30724.567    13.195303   -3230.1112    198.18444     72.13793     62.47328    35.990622    2435.3345   -312022.61 
     580    142.66411    162218.78    72.140909    72.140909    35.992108          120    18364.425    20018.288   -29378.908   -57.111378   -3572.4619    278.42989    72.140909     62.47586    35.992108    3001.2683   -312030.72 
     590     139.8975    162242.47    72.144419     72.14442     35.99386          120    17954.573    19595.113   -29835.519    41.432974   -3603.8112   -17.526583    72.144419      62.4789     35.99386    2571.3891   -312038.07 
     600    139.63893    162268.66    72.148302    72.148302    35.995797          120    17412.443    18441.906    -31875.68    180.30244   -3416.5459    201.88763    72.148302    62.482263    35.995797    1326.2231    -312050.2 
     610    136.15909       162295    72.152205    72.152205    35.997744          120    16647.477    18188.212   -34880.221    421.76824   -3170.7597    45.027288    72.152205    62.485643    35.997744   -14.844201   -312055.37 
     620    133.57526    162319.07    72.155772    72.155772    35.999524          120    16062.496    17948.285   -37139.159    459.71993    -3071.622   -458.63697    72.155772    62.488732    35.999524   -1042.7928   -312061.82 
     630    130.26395    162339.22    72.158758    72.158758    36.001014          120    15663.865    17537.473   -37841.899    483.36309   -3135.1791   -603.67129    72.158758    62.491318    36.001014   -1546.8534   -312066.82 
     640    128.58459    162354.92    72.161083    72.161084    36.002174          120    15810.166    17503.562   -37237.664    336.38858   -2884.6893   -521.88056    72.161083    62.493332    36.002174   -1307.9786   -312074.61 
     650    124.84458    162367.05     72.16288    72.162881     36.00307          120    16632.658    18309.965   -35218.286    17.566378   -2800.5205   -718.34706     72.16288    62.494888     36.00307   -91.887582   -312078.06 
     660    122.13457    162378.07    72.164513    72.164513    36.003885          120    17856.991    19019.658   -32855.225    26.963887   -2903.2601   -498.35081    72.164513    62.496302    36.003885    1340.4747   -312083.12 
     670    120.18597    162390.46    72.166349     72.16635    36.004801          120    17789.067    18691.426   -31656.283    66.325159    -3312.186   -448.32548    72.166349    62.497892    36.004801    1608.0699   -312089.39 
     680     118.1159    162404.68    72.168454    72.168455    36.005851          120    16951.596    18059.348   -32176.684    127.32142    -3821.271   -256.89991    72.168454    62.499716    36.005851    944.75329   -312094.74 
     690    116.50342     162419.4    72.170636    72.170636     36.00694          120    16149.464     17177.55   -34028.627    216.15352   -3916.9024   -82.905062    72.170636    62.501605     36.00694   -233.87123   -312100.94 
     700    114.71988    162432.46     72.17257     72.17257    36.007904          120    15235.547    16246.746   -36340.292    258.66616   -4022.2504   -409.43854     72.17257    62.503279    36.007904    -1619.333   -312106.13 
     710    111.71857    162441.58     72.17392     72.17392    36.008578          120    14981.897    15575.994   -37465.548   -73.911174   -3833.0159    -942.1422     72.17392    62.504449    36.008578   -2302.5525      -312109 
     720     109.3408    162445.84    72.174552    72.174552    36.008893          120    15283.383    15951.109   -37512.098   -346.14167    -3773.487   -1223.2867    72.174552    62.504996    36.008893   -2092.5354   -312112.29 
     730    107.28092    162445.98    72.174572    72.174573    36.008904          120    15679.308     16801.96   -36556.161   -344.39595   -3669.2131   -1171.6891    72.174572    62.505014    36.008904    -1358.298   -312115.78 
     740    105.50948     162443.6    72.174219     72.17422    36.008727          120    15878.489    17477.917   -35250.035   -378.39898   -3259.1912   -1128.2543    72.174219    62.504708    36.008727   -631.20977   -312119.48 
     750    104.73366    162440.19    72.173714    72.173715    36.008476          120     16142.68    17378.851   -34020.426   -98.523576   -2796.7083   -981.47888    72.173714    62.504271    36.008476   -166.29833   -312125.43 
     760      102.472    162436.67    72.173193    72.173193    36.008215          120    16174.708    17357.802   -33855.706    142.94353   -2740.9699   -734.27881    72.173193    62.503819    36.008215   -107.73203    -312128.5 
     770    101.15225    162433.15    72.172672    72.172672    36.007955          120    16131.984    17435.237   -34765.312    240.54504    -2765.948   -444.18287    72.172672    62.503368    36.007955   -399.36361   -312132.94 
     780    99.193765    162429.18    72.172084    72.172084    36.007662          120    15923.085    17337.173   -35063.135    191.55876   -2656.3759   -547.06285    72.172084    62.502858    36.007662    -600.9587   -312135.76 
     790    97.401699    162424.36     72.17137     72.17137    36.007306          120    15760.701    17167.095   -35526.812    121.35762   -3291.1597   -330.24009     72.17137     62.50224    36.007306   -866.33859   -312138.77 
     800    95.633532    162418.34    72.170478    72.170479    36.006861          120    16223.001    17443.921   -36124.968     61.21689   -3779.3202   -424.92905    72.170478    62.501468    36.006861    -819.3486   -312141.32 
     810    94.685885    162411.24    72.169426    72.169427    36.006336          120    16682.444     17499.77   -36404.337    248.24874   -3630.3189   -567.93597    72.169426    62.500557    36.006336   -740.70769   -312144.97 
     820    94.045387    162403.28    72.168248    72.168248    36.005748          120    17039.185    17145.607   -36035.805    339.27578   -3388.1042   -737.35437    72.168248    62.499536    36.005748   -617.00444   -312149.47 
     830    92.609575    162394.82    72.166995    72.166995    36.005123          120    17080.965    17441.892   -34988.588    254.72756   -2894.9304   -804.55112    72.166995    62.498451    36.005123   -155.24378   -312151.81 
     840    91.981927    162386.68    72.165788    72.165789    36.004521          120    17309.932    17743.521   -34113.509   -6.1417922   -2756.5224   -376.31875    72.165788    62.497407    36.004521    313.31468   -312156.15 
     850    91.060053     162379.7    72.164754    72.164755    36.004005          120    17754.019    18032.562   -33639.878   -240.46214    -2996.197   -192.46369    72.164754    62.496511    36.004005    715.56766   -312159.44 
     860    89.508869    162374.49    72.163982    72.163983     36.00362          120    17987.913    18017.028   -33704.424   -398.18997   -3464.9887   -29.413194    72.163982    62.495842     36.00362     766.8389   -312161.27 
     870    88.523496    162371.05    72.163473    72.163474    36.003366          120    17816.163    17992.281   -33842.176   -356.59305   -3670.9543   -319.12058    72.163473    62.495402    36.003366    655.42265   -312164.31 
     880    87.425736    162369.03    72.163174    72.163174    36.003217          120    17466.638    18017.902   -34719.504   -150.41619   -3418.3597   -355.87594    72.163174    62.495142    36.003217    255.01195   -312166.84 
     890    85.401312    162367.64    72.162969    72.162969    36.003114          120    17164.025    18202.335   -35229.235   -183.78509   -3317.9783   -367.95871    72.162969    62.494965    36.003114    45.708305   -312166.88 
     900    85.234164     162366.5    72.162799    72.162799     36.00303          120    17140.082    18406.964   -34908.765   -321.92583   -3183.3455   -455.99216    72.162799    62.494818     36.00303    212.76046   -312170.47 
     910    84.806758     162365.8    72.162696    72.162696    36.002978          120    16994.133    18440.398   -34576.884   -288.55237   -3118.6134   -109.02503    72.162696    62.494728    36.002978    285.88236   -312173.59 
     920    83.157548    162365.72    72.162683    72.162684    36.002972          120    16994.332    18394.893   -33942.757   -82.710684   -2965.4654   -26.779703    72.162683    62.494718    36.002972    482.15626    -312173.8 
     930    82.048457    162366.55    72.162807    72.162807    36.003034          120     17299.79    18343.949   -33394.161   -148.31299   -2834.9252    59.696479    72.162807    62.494824    36.003034    749.85944   -312175.15 
     940    81.718743    162368.69    72.163123    72.163124    36.003192          120     17144.01    18352.201    -33034.92    6.1071874   -2818.9395    49.347412    72.163123    62.495099    36.003192    820.43047   -312177.97 
     950    80.799472    162372.16    72.163637    72.163638    36.003448          120    16945.054    18274.936   -33608.701    307.91231   -2827.3553    40.831299    72.163637    62.495544    36.003448    537.09648   -312179.69 
     960     80.71727    162376.34    72.164258    72.164258    36.003758          120    16474.218    18196.864   -34654.206    132.38963   -3105.1454    77.328666    72.164258    62.496081    36.003758    5.6251106   -312182.68 
     970    79.799952    162380.28    72.164841    72.164842    36.004049          120    16199.227    18086.527   -35461.983    111.25681   -3442.2444   -139.39754    72.164841    62.496586    36.004049   -392.07597   -312183.92 
     980    78.851104    162383.25    72.165281    72.165281    36.004268          120    16282.433    17965.105   -36151.512   -11.713421    -3610.763   -216.48428    72.165281    62.496967    36.004268   -634.65812    -312184.7 
     990     79.00226    162384.89    72.165524    72.165525    36.004389          120    16533.572    18294.729   -36410.205   -145.75968   -3226.1047   -230.00624    72.165524    62.497178    36.004389   -527.30152   -312187.56 
    1000    78.095285    162385.48    72.165611    72.165611    36.004433          120    16806.081     18527.33   -35811.572   -330.15153   -2666.5075   -454.85121    72.165611    62.497253    36.004433   -159.38713   -312188.32 
Loop time of 393.29 on 1 procs for 1000 steps with 14848 atoms

Performance: 0.220 ns/day, 109.247 hours/ns, 2.543 timesteps/s
99.7% CPU use with 1 MPI tasks x no OpenMP threads

MPI task timing breakdown:
Section |  min time  |  avg time  |  max time  |%varavg| %total
---------------------------------------------------------------
Pair    | 323.58     | 323.58     | 323.58     |   0.0 | 82.28
Bond    | 0.00056481 | 0.00056481 | 0.00056481 |   0.0 |  0.00
Kspace  | 14.93      | 14.93      | 14.93      |   0.0 |  3.80
Neigh   | 45.511     | 45.511     | 45.511     |   0.0 | 11.57
Comm    | 0.5028     | 0.5028     | 0.5028     |   0.0 |  0.13
Output  | 0.013955   | 0.013955   | 0.013955   |   0.0 |  0.00
Modify  | 8.5733     | 8.5733     | 8.5733     |   0.0 |  2.18
Other   |            | 0.1734     |            |       |  0.04

Nlocal:    14848 ave 14848 max 14848 min
Histogram: 1 0 0 0 0 0 0 0 0 0
Nghost:    46939 ave 46939 max 46939 min
Histogram: 1 0 0 0 0 0 0 0 0 0
Neighs:    1.01344e+07 ave 1.01344e+07 max 1.01344e+07 min
Histogram: 1 0 0 0 0 0 0 0 0 0

Total # of neighbors = 10134424
Ave neighs/atom = 682.545
Ave special neighs/atom = 0
Neighbor list builds = 132
Dangerous builds = 0
PPPM initialization ...
  using 12-bit tables for long-range coulomb (../kspace.cpp:321)
  G vector (1/distance) = 0.202689
  grid = 36 50 24
  stencil order = 5
  estimated absolute RMS force accuracy = 0.000992443
  estimated relative force accuracy = 6.89213e-05
  using double precision FFTs
  3d grid and FFT values/proc = 65395 43200
Setting up Verlet run ...
  Unit style    : metal
  Current step  : 0
  Time step     : 0.001
Per MPI rank memory allocation (min/avg/max) = 152.6 | 152.6 | 152.6 Mbytes
Step Temp Volume Cella Cellb Cellc CellGamma Pxx Pyy Pzz Pxy Pxz Pyz Lx Ly Lz Press PotEng 
       0    78.095285    162385.48    72.165611    72.165611    36.004433          120    16820.309    18542.028   -35802.261    -329.7542   -2666.3439   -455.03574    72.165611    62.497253    36.004433   -146.64131   -312188.11 
      10    77.147967    162385.78    72.165655    72.165656    36.004455          120    17142.981    18606.499    -34641.67   -197.20712   -2438.5904   -379.42837    72.165655    62.497291    36.004455    369.26998   -312188.28 
      20    75.885409    162386.68    72.165788    72.165789    36.004521          120    17125.423    18489.108   -34149.301     107.8985   -2401.2696   -80.119849    72.165788    62.497406    36.004521    488.41002   -312187.46 
      30     76.42465    162388.41    72.166045    72.166046    36.004649          120    17042.233    18244.932    -33751.24   -115.76154   -2691.5239    181.30389    72.166045    62.497629    36.004649    511.97518   -312190.27 
      40    76.346968       162391    72.166429     72.16643    36.004841          120    17079.394    18164.416   -33576.683   -9.1058765    -2837.027    293.32926    72.166429    62.497962    36.004841    555.70912   -312191.49 
      50    76.469269    162394.42    72.166935    72.166936    36.005093          120    17155.918    17821.742   -33882.732    51.368673   -2996.2604    167.42638    72.166935      62.4984    36.005093    364.97602   -312193.42 
      60    76.553461    162398.32    72.167512    72.167513    36.005381          120    17380.965    17670.546   -34247.889   -173.44204   -3178.7074     275.0924    72.167512      62.4989    36.005381    267.87378   -312194.83 
      70     76.20986    162402.47    72.168127    72.168128    36.005688          120    17498.514    17594.071   -34476.657   -110.67421   -3143.3425    126.57306    72.168127    62.499432    36.005688    205.30943   -312195.22 
      80    76.402264    162406.75    72.168762    72.168763    36.006005          120     17664.68    17570.861   -34612.076   -78.861369   -3044.1691   -19.371813    72.168762    62.499982    36.006005    207.82188   -312196.61 
      90    75.535653    162411.18    72.169418    72.169419    36.006332          120    17483.878    18055.126   -34487.835   -10.352474   -3287.2143   -3.0736283    72.169418     62.50055    36.006332    350.38994   -312196.11 
     100    74.566604    162416.03    72.170136    72.170137     36.00669          120    17528.216    18610.789   -34062.199    237.00136   -3315.5867     -104.164    72.170136    62.501172     36.00669     692.2687   -312194.74 
     110    75.320893    162421.86    72.170999       72.171    36.007121          120    17859.443    18627.358   -33654.924    242.51014   -2963.9199   -1.5350572    72.170999    62.501919    36.007121    943.95893   -312196.47 
     120    74.929804    162429.09    72.172071    72.172072    36.007656          120    18351.254    18491.644   -33417.546    103.77128   -3009.3002    239.42184    72.172071    62.502848    36.007656    1141.7842   -312196.35 
     130    75.259451    162437.98    72.173387    72.173387    36.008312          120    18375.315      18432.2   -33593.064   -67.127955   -3306.7945    198.05121    72.173387    62.503987    36.008312    1071.4835   -312197.12 
     140    75.547863    162448.24    72.174907    72.174908    36.009071          120    17699.132      18208.6   -34300.216    39.665007   -3428.8774   -105.86911    72.174907    62.505304    36.009071    535.83868   -312197.46 
     150    75.361704    162458.89    72.176485    72.176485    36.009858          120    17183.116    18241.649   -35266.101    118.21584   -3589.7414    112.22852    72.176485     62.50667    36.009858    52.888129   -312196.81 
     160    75.800316    162469.09    72.177994    72.177995    36.010611          120    17128.646    18494.558   -35370.175    13.693474   -3689.4764    52.095658    72.177994    62.507977    36.010611    84.342699   -312197.26 
     170    76.776011    162478.86    72.179441    72.179442    36.011333          120    17032.864    18651.887   -34842.844    76.109753   -3456.5944   -194.19842    72.179441     62.50923    36.011333    280.63557   -312198.66 
     180    76.809714    162488.54    72.180875    72.180876    36.012048          120    17079.319    18425.951   -34633.362    67.119943   -3480.1308   -548.78717    72.180875    62.510472    36.012048    290.63592   -312197.71 
     190    76.984542    162498.16      72.1823      72.1823    36.012759          120    16988.151    18105.701   -34677.969    41.379669   -3751.3387   -948.55531      72.1823    62.511706    36.012759    138.62783   -312197.03 
     200    76.840475    162507.47    72.183677    72.183678    36.013446          120    16931.353    17956.682   -34931.244   -16.626882    -3284.086   -513.80611    72.183677    62.512899    36.013446   -14.402726   -312195.88 
     210    77.180166     162516.2     72.18497     72.18497    36.014091          120    16583.435    17976.648   -35002.866    267.26834   -3019.1779    156.08616     72.18497    62.514018    36.014091   -147.59442    -312195.6 
     220     77.14654    162524.14    72.186145    72.186146    36.014678          120    16259.463    18088.449    -35090.24    578.09358   -2751.3539    284.92943    72.186145    62.515036    36.014678   -247.44265   -312194.69 
     230    77.396727    162531.15    72.187184    72.187184    36.015196          120    16252.823     18174.02   -35304.065    503.42912    -2753.106    700.25792    72.187184    62.515936    36.015196   -292.40766   -312194.01 
     240    78.062024    162537.21     72.18808    72.188081    36.015643          120    16337.861    18161.812   -35502.289    401.03837    -3054.257    1038.1398     72.18808    62.516712    36.015643   -334.20562    -312193.8 
     250    78.044132    162542.29    72.188833    72.188834    36.016019          120    16136.155    18225.243   -35317.043    187.82523   -3230.5947    829.59491    72.188833    62.517364    36.016019   -318.54857   -312192.51 
     260    79.708103    162546.48    72.189453    72.189453    36.016328          120      15964.2    18201.012   -35085.442    169.36831   -3490.0843    676.23324    72.189453      62.5179    36.016328   -306.74336   -312194.37 
     270    80.425314    162549.85    72.189952    72.189953    36.016577          120    15973.889    18395.842   -35051.341    439.54507   -3454.8984    302.44006    72.189952    62.518333    36.016577   -227.20299   -312194.37 
     280    80.180452     162552.6    72.190359     72.19036     36.01678          120    15942.775    18545.834   -35210.879    550.39647   -3446.5819   -72.478769    72.190359    62.518685     36.01678   -240.75668   -312192.34 
     290    80.392904     162554.7     72.19067     72.19067    36.016935          120    15950.759    17961.994   -35288.699    337.08293   -3218.3362   -503.04034     72.19067    62.518955    36.016935   -458.64871   -312191.62 
     300    80.456534    162555.85    72.190841    72.190841     36.01702          120    15813.971     17697.39   -34905.098    143.04603   -3192.6868   -383.12183    72.190841    62.519103     36.01702   -464.57905    -312190.3 
     310    80.628527    162556.08    72.190874    72.190874    36.017037          120    15807.156    18013.164   -35018.972    37.999696   -3137.1643    83.548639    72.190874    62.519131    36.017037   -399.55045   -312189.46 
     320    80.582692    162555.55    72.190796    72.190796    36.016998          120    16238.482    18260.171   -35219.809    41.895247   -2919.7972    251.19292    72.190796    62.519064    36.016998   -240.38552   -312188.02 
     330    80.905645    162554.62    72.190658    72.190658    36.016929          120    16458.233    18495.005   -34897.295    115.60292   -3050.3461    325.79067    72.190658    62.518944    36.016929    18.648009   -312187.49 
     340     81.42515    162553.77    72.190533    72.190533    36.016867          120    16861.915    18530.299   -34523.261    386.93191   -3111.1735    119.44639    72.190533    62.518836    36.016867    289.65108    -312187.2 
     350    81.860505    162553.48    72.190489    72.190489    36.016845          120    17416.331    18146.449   -34544.768    394.58612   -3006.0173    59.642993    72.190489    62.518798    36.016845    339.33741    -312186.9 
     360    82.428935    162553.83     72.19054    72.190541     36.01687          120    17483.568    18032.097   -34524.258    502.11084      -3224.1    198.49905     72.19054    62.518843     36.01687    330.46894   -312186.83 
     370    83.238629    162554.78    72.190681    72.190682    36.016941          120    17389.517    18549.796   -34901.743     821.3338   -3257.5218    207.60839    72.190681    62.518965    36.016941    345.85638   -312187.59 
     380    83.790566    162556.34    72.190913    72.190914    36.017056          120    17457.785     18629.64   -34753.608    842.06826   -3301.9697    89.766735    72.190913    62.519165    36.017056    444.60588   -312187.96 
     390    83.401819     162558.6    72.191246    72.191247    36.017223          120    17245.414    18137.083   -34869.193    729.57028   -2964.8864    46.060896    72.191246    62.519454    36.017223    171.10141   -312186.66 
     400    83.656034    162560.99    72.191602    72.191602      36.0174          120    16359.422     17866.17   -35229.339    692.82042   -2544.8255    169.19559    72.191602    62.519762      36.0174   -334.58221    -312186.7 
     410    83.982031    162562.72    72.191858    72.191858    36.017528          120    16438.513    17520.038   -34976.806    417.57457   -2769.6965    305.78573    72.191858    62.519983    36.017528   -339.41819   -312186.83 
     420    84.207951    162563.66    72.191997    72.191997    36.017597          120    16273.577    17415.457   -35328.801    119.93173   -2902.3692    249.78489    72.191997    62.520104    36.017597   -546.58894    -312187.4 
     430    83.711888    162563.53    72.191976    72.191977    36.017587          120    16094.414    17319.752   -35629.478    114.85333   -2884.4334    84.053556    72.191976    62.520086    36.017587   -738.43749   -312186.52 
     440    84.069807    162562.07     72.19176    72.191761    36.017479          120    16280.698    17394.147   -35491.791    438.70419   -2946.5088    126.29772     72.19176    62.519899    36.017479   -605.64878   -312187.11 
     450    84.558161    162559.57    72.191391    72.191392    36.017295          120    16486.638      17570.2   -35004.036    254.76128   -3158.7422    41.126584    72.191391     62.51958    36.017295   -315.73279   -312188.11 
     460    84.201304    162556.61    72.190952    72.190953    36.017076          120    16864.398    17585.891    -34725.02    123.85163   -3295.1405   -366.68841    72.190952    62.519199    36.017076   -91.576821   -312187.56 
     470    83.962404    162553.63    72.190511    72.190512    36.016856          120    17147.479     17863.44   -34687.356    236.68254   -3358.2561   -419.95076    72.190511    62.518817    36.016856    107.85445   -312187.33 
     480    83.930928    162550.98    72.190118    72.190119     36.01666          120     17195.59    18096.274   -34894.926    314.63053   -2851.8626   -608.51751    72.190118    62.518477     36.01666     132.3127   -312188.07 
     490    83.362921    162548.66    72.189776    72.189777    36.016489          120    16697.513    18114.549    -35013.99    520.26646   -2492.1611    -755.0942    72.189776    62.518181    36.016489   -67.309126   -312187.95 
     500     83.60559    162546.38    72.189439    72.189439    36.016321          120    16647.296    17924.276   -34844.262    677.03222   -2388.2388   -845.90478    72.189439    62.517888    36.016321   -90.896714   -312189.41 
     510    82.663032    162544.05    72.189093    72.189093    36.016148          120    16723.317    18011.139    -35063.66    576.07833   -2356.2124   -822.17893    72.189093    62.517589    36.016148   -109.73427   -312188.94 
     520    82.557185    162541.63    72.188734    72.188735    36.015969          120    16924.259    17837.753   -35158.445    525.91962   -2661.2846   -574.71381    72.188734    62.517278    36.015969   -132.14437   -312190.15 
     530    82.556374    162539.11    72.188362    72.188362    36.015783          120     17370.33    17899.121   -35211.719    539.81936   -2788.5229   -690.31854    72.188362    62.516956    36.015783    19.243867   -312191.57 
     540    82.832914    162536.83    72.188024    72.188024    36.015615          120    17823.225    18218.722   -34534.147     383.0114   -2913.3208   -883.56752    72.188024    62.516663    36.015615    502.59992   -312193.27 
     550    82.050082    162535.57    72.187837    72.187838    36.015522          120    17889.398    18319.335   -33980.052    334.42386    -3022.394   -746.24606    72.187837    62.516502    36.015522    742.89375   -312193.27 
     560     82.67617    162535.72     72.18786     72.18786    36.015533          120     17505.88    18634.387   -34094.987    570.58204   -3061.9917   -294.73928     72.18786    62.516521    36.015533     681.7603   -312196.45 
     570    81.649974    162537.13    72.188069     72.18807    36.015638          120    17383.885    18582.432   -34372.143    779.45685   -2935.6556    -239.4695    72.188069    62.516703    36.015638    531.39101   -312195.82 
     580    81.956824    162539.44     72.18841    72.188411    36.015808          120    17169.706    18268.922   -34794.732    729.92069   -2790.4908   -431.17818     72.18841    62.516998    36.015808    214.63193    -312198.2 
     590    81.621327    162542.08    72.188801    72.188801    36.016003          120    17148.565     18177.68   -34837.996     600.5227   -2668.8748   -708.54499    72.188801    62.517336    36.016003    162.74971   -312199.77 
     600    80.670225    162544.88    72.189216    72.189216     36.01621          120    17246.135    18095.695   -35013.518    706.90081   -2409.4547   -811.89487    72.189216    62.517695     36.01621    109.43718   -312199.69 
     610    79.645082    162547.76    72.189642    72.189643    36.016422          120    17292.749    18101.504   -35108.481    554.41013   -2357.2064   -733.73205    72.189642    62.518065    36.016422    95.257406   -312199.12 
     620     79.49702    162550.65     72.19007     72.19007    36.016636          120    17085.266    17943.549   -35088.733    567.79845   -2471.5294    -829.4436     72.19007    62.518435    36.016636    -19.97272   -312200.54 
     630    79.440873    162553.38    72.190474    72.190475    36.016837          120    16980.357    17747.505   -34808.962    779.91204   -2424.3117   -662.82666    72.190474    62.518785    36.016837   -27.033325   -312202.44 
     640    78.856582    162555.91    72.190848    72.190849    36.017024          120    16985.257    17438.794    -34882.93    721.95409    -2433.595   -565.12795    72.190848    62.519109    36.017024   -152.95977   -312202.75 
     650    78.539219    162557.99    72.191157    72.191158    36.017178          120    16794.305    17512.518   -35373.585    662.66899   -2493.8888   -509.26057    72.191157    62.519377    36.017178   -355.58763   -312203.53 
     660    78.232642    162559.34    72.191357    72.191357    36.017278          120    16905.606    17614.158   -35450.808    542.54559   -2588.6993   -369.46261    72.191357    62.519549    36.017278   -310.34827   -312204.47 
     670       79.125    162560.05    72.191462    72.191463     36.01733          120    17203.233    17863.861   -35359.762     392.6304   -2693.9659    -443.5444    72.191462    62.519641     36.01733   -97.556108    -312207.4 
     680    77.950062    162560.54    72.191535    72.191535    36.017366          120    17137.719    18245.648   -35125.643    292.97226   -2862.9897   -304.32856    72.191535    62.519703    36.017366    85.907933   -312205.99 
     690    77.097223    162561.14    72.191624    72.191624    36.017411          120    16786.832     18608.04   -35013.047     384.4033   -2755.6762   -252.81724    72.191624    62.519781    36.017411    127.27499    -312205.7 
     700    77.050968    162561.97    72.191746    72.191746    36.017472          120    16847.195    18488.445   -34694.814    450.84632   -2637.6487   -468.72248    72.191746    62.519886    36.017472    213.60882    -312206.9 
     710    77.116955    162563.15    72.191921    72.191922    36.017559          120    17051.696    18233.469   -34403.817    167.46771   -2722.6504   -678.29724    72.191921    62.520038    36.017559    293.78248   -312207.96 
     720    76.433414    162564.85    72.192173    72.192174    36.017685          120    17842.946     17940.97   -34281.529    174.13956   -2522.2303   -827.26146    72.192173    62.520256    36.017685    500.79553    -312207.3 
     730    76.683321     162567.4    72.192549     72.19255    36.017873          120    17981.711    17766.677   -33966.422    193.03698   -2453.3121   -303.09022    72.192549    62.520582    36.017873     593.9885   -312208.75 
     740    77.811524    162570.85    72.193061    72.193062    36.018128          120    17556.181    17804.219   -34573.244     214.1347   -2691.7612    280.27472    72.193061    62.521026    36.018128    262.38534   -312211.46 
     750    77.195328    162574.63     72.19362    72.193621    36.018407          120    17410.612    17357.627    -35125.25    593.21091    -2658.492     454.3741     72.19362     62.52151    36.018407   -119.00389   -312210.44 
     760    76.167215    162578.02    72.194122    72.194122    36.018657          120    17167.902     17304.25   -35536.129    785.19497   -2624.4419    761.13199    72.194122    62.521944    36.018657   -354.65896   -312208.89 
     770    75.864595    162580.62    72.194507    72.194508    36.018849          120    17160.588     17576.19   -35660.269    823.95067   -2644.9872    523.67977    72.194507    62.522278    36.018849    -307.8304   -312208.49 
     780    76.957957    162582.54    72.194791    72.194792    36.018991          120    17544.187    17737.866   -35574.276    731.20408   -2396.9545    270.12974    72.194791    62.522524    36.018991   -97.407419   -312210.45 
     790    77.112158     162584.2    72.195037    72.195037    36.019114          120    17769.857    18226.267   -35319.648    622.70336   -2488.0453    96.443669    72.195037    62.522737    36.019114    225.49221   -312210.57 
     800    77.195458    162586.19    72.195331    72.195332    36.019261          120      17622.7    18661.411   -34929.726    659.03652   -2392.2252   -118.56934    72.195331    62.522992    36.019261    451.46156   -312210.43 
     810    77.080013    162588.89    72.195731    72.195732     36.01946          120    17618.849    18744.161   -35082.433    849.94444   -2361.0244    -200.0195    72.195731    62.523338     36.01946    426.85903   -312209.71 
     820    77.176136     162592.3    72.196235    72.196236    36.019712          120    17536.114    18863.383   -35002.977    747.00379   -2206.1219   -108.22761    72.196235    62.523774    36.019712    465.50646   -312209.47 
     830    77.790137    162596.38    72.196839     72.19684    36.020013          120    17433.358    18692.082   -35126.959    818.16199   -2388.0735    123.43229    72.196839    62.524298    36.020013    332.82695   -312210.58 
     840    77.979421    162600.93    72.197512    72.197513    36.020349          120    17440.894    18502.657   -34835.867    869.95378   -2625.5063    344.07733    72.197512     62.52488    36.020349    369.22796   -312210.69 
     850    77.169683    162605.94    72.198254    72.198255    36.020719          120    17494.506    18468.954   -35030.339    544.03372   -2514.6161    832.94286    72.198254    62.525523    36.020719    311.04011   -312208.27 
     860    78.134505    162611.26    72.199041    72.199042    36.021112          120    17418.255    18275.232   -35487.742    565.39934   -2589.0446    881.91054    72.199041    62.526204    36.021112    68.581644   -312209.34 
     870    78.310264    162616.52     72.19982    72.199821      36.0215          120    17311.387    18458.801   -35426.297    631.02208   -2645.8119    760.66463     72.19982    62.526879      36.0215    114.63023   -312208.88 
     880    78.836945    162621.75    72.200594    72.200594    36.021886          120    17314.325    18481.879   -35377.428    860.89255   -2545.2113    594.66447    72.200594    62.527549    36.021886    139.59194   -312209.22 
     890    78.709825    162627.04    72.201377    72.201377    36.022277          120      17339.4     18517.34   -34658.741    821.05861   -2365.9815    237.31114    72.201377    62.528227    36.022277    399.33295   -312208.18 
     900    79.042841     162632.8     72.20223    72.202231    36.022702          120    17682.573     18212.51   -34414.483     721.8493    -2226.219   -80.723068     72.20223    62.528966    36.022702     493.5333   -312207.79 
     910    79.432627     162639.2    72.203176    72.203177    36.023175          120    17398.447     18000.59   -34415.866    667.18428   -2152.6341   -372.95445    72.203176    62.529785    36.023175     327.7235   -312207.56 
     920    79.883145    162645.89    72.204167    72.204168    36.023669          120    16768.915    18014.204   -34714.156    358.32632    -2354.471   -553.14477    72.204167    62.530644    36.023669     22.98756    -312207.6 
     930    79.498602    162652.34    72.205121    72.205122    36.024145          120    16610.842     18169.03   -35264.926    297.97553   -2788.3942   -98.642209    72.205121     62.53147    36.024145   -161.68462   -312205.73 
     940    79.778393    162658.24    72.205994    72.205994     36.02458          120    16816.305    18510.778   -35655.313    335.86103   -3186.3995    177.26665    72.205994    62.532226     36.02458   -109.41034   -312205.25 
     950    80.503296    162663.62     72.20679     72.20679    36.024977          120    16952.283    18366.924    -36146.09     521.4443   -3275.9334    192.55608     72.20679    62.532915    36.024977   -275.62774   -312205.09 
     960    80.098257    162668.18    72.207465    72.207466    36.025314          120    16613.465    17753.735   -36496.759    788.90098   -3362.2098    217.76957    72.207465      62.5335    36.025314   -709.85284   -312203.56 
     970    80.705313    162671.21    72.207913    72.207914    36.025538          120    16416.689    17302.734    -36726.37    695.01102   -3188.3198    315.91196    72.207913    62.533888    36.025538   -1002.3156   -312203.87 
     980    80.924618    162672.28    72.208071    72.208072    36.025617          120    16290.591    17641.018   -36492.092    695.19412   -2937.4423    514.91326    72.208071    62.534025    36.025617   -853.49427   -312203.42 
     990    81.536182     162671.7    72.207985    72.207986    36.025574          120    16322.928    17932.167   -36137.202    766.78371   -2505.5765    230.78303    72.207985     62.53395    36.025574   -627.36915    -312203.6 
    1000    82.954699    162669.92    72.207723    72.207724    36.025443          120    16230.995    17976.875   -35903.544    567.04604   -2022.6973    58.704047    72.207723    62.533723    36.025443   -565.22494   -312205.48 
    1010    81.885786    162667.12    72.207308    72.207309    36.025236          120    16214.448     17891.99   -36229.046    634.34569   -1741.1222   -300.50373    72.207308    62.533364    36.025236   -707.53596   -312202.58 
    1020    82.746083    162663.12    72.206715    72.206716     36.02494          120    16589.032    17472.143   -36432.465    850.34352   -1753.1277   -155.25533    72.206715     62.53285     36.02494   -790.42973   -312203.48 
    1030    82.691039    162657.86    72.205938    72.205938    36.024552          120    17222.507     17465.72   -36192.987    843.49792   -2410.9014    304.23034    72.205938    62.532177    36.024552   -501.58685   -312202.86 
    1040    82.123656    162651.89    72.205055    72.205055    36.024112          120    17810.864    17759.331   -36125.636    714.90678   -2776.1528    227.92205    72.205055    62.531412    36.024112    -185.1467   -312201.06 
    1050    82.111852    162645.79    72.204152    72.204152    36.023661          120    17565.038    17978.145   -35949.998    736.56304   -3046.8003   -56.223609    72.204152     62.53063    36.023661   -135.60494   -312201.11 
    1060     82.22809     162639.7    72.203251    72.203251    36.023212          120     17390.84    17763.688   -35378.147    723.49182   -2938.5753   -176.14655    72.203251     62.52985    36.023212   -74.539765   -312200.99 
    1070    82.441843    162633.77    72.202373    72.202374    36.022774          120    17318.448    17757.271   -34612.528     708.2918   -2558.1738   -58.487808    72.202373     62.52909    36.022774    154.39685   -312201.31 
    1080    83.378599    162628.34    72.201569    72.201569    36.022373          120    17023.885    17888.835    -34542.16    584.02752    -2335.408     448.7197    72.201569    62.528394    36.022373    123.51972   -312203.19 
    1090    83.262531    162623.41    72.200839     72.20084    36.022009          120    17053.834    18173.461   -34600.894     570.2629    -2459.383    623.11272    72.200839    62.527761    36.022009    208.79992   -312202.96 
    1100     83.37808    162619.08    72.200199      72.2002    36.021689          120    16844.631    18513.497   -34617.785    599.90716   -2632.0712    738.56852    72.200199    62.527207    36.021689    246.78102   -312203.05 
    1110    83.333604    162615.37    72.199649     72.19965    36.021415          120    16666.017    18448.081   -34965.935    550.22653   -2385.9482    528.56714    72.199649    62.526731    36.021415    49.387648   -312203.63 
    1120    82.338999    162611.97    72.199147    72.199147    36.021164          120    16861.358    18605.159   -34972.233    655.48002   -2278.6857    512.49795    72.199147    62.526296    36.021164    164.76145   -312201.86 
    1130     82.43765    162609.04    72.198713    72.198714    36.020948          120    17397.271    18932.985   -35212.452    702.40701   -2152.1703    496.60196    72.198713     62.52592    36.020948    372.60129   -312202.33 
    1140    82.100606     162606.9    72.198396    72.198396    36.020789          120    17512.461    18956.024   -35539.397    649.41763    -2144.576    507.06159    72.198396    62.525645    36.020789    309.69619   -312202.43 
    1150    82.193017    162605.43    72.198179     72.19818    36.020682          120    17351.965     18781.15   -35127.963    678.91574   -2144.7518    488.46895    72.198179    62.525458    36.020682    335.05067   -312203.48 
    1160     81.60506    162604.72    72.198074    72.198074    36.020629          120     17583.73    19007.108   -34671.125     624.0085   -2198.1632    214.42548    72.198074    62.525367    36.020629     639.9043   -312203.18 
    1170    81.474291     162605.2    72.198145    72.198146    36.020665          120    17470.731    19286.134   -34636.544    271.24767   -2087.2145    359.85788    72.198145    62.525428    36.020665    706.77386   -312203.61 
    1180    81.198367    162606.95    72.198404    72.198405    36.020794          120    17562.725    18688.378   -34693.966    337.47872    -1800.441    417.69131    72.198404    62.525653    36.020794    519.04602   -312204.05 
    1190    81.457268    162609.62    72.198798    72.198799     36.02099          120    17840.888    18231.251   -35043.303    819.36023   -1924.7947    256.76405    72.198798    62.525994     36.02099    342.94522   -312205.35 
    1200    81.479769    162612.83    72.199274    72.199274    36.021227          120    17814.519     18192.15   -35275.453    899.76142   -2541.4337   -11.267906    72.199274    62.526406    36.021227    243.73864   -312206.49 
    1210    80.840824    162616.36    72.199797    72.199798    36.021489          120    18065.729      18193.2   -35872.763    579.39527   -2536.3644   -167.16293    72.199797    62.526859    36.021489    128.72205   -312206.57 
    1220    80.961096    162619.98    72.200332    72.200332    36.021755          120    17728.008     18421.33   -36368.271    368.09613   -2571.2112   -253.23512    72.200332    62.527322    36.021755   -72.977344   -312207.73 
    1230    81.128329    162623.31    72.200825    72.200826    36.022002          120    17349.896     18564.88   -36437.826    394.74947    -2362.018   -296.10068    72.200825     62.52775    36.022002   -174.34969   -312209.12 
    1240    79.902629     162626.2    72.201253    72.201254    36.022215          120    17386.148    18504.992   -36241.473    298.53762   -2277.6948   -502.50669    72.201253     62.52812    36.022215    -116.7775   -312208.38 
    1250    80.038368    162628.78    72.201634    72.201634    36.022405          120    17930.673    18444.611   -36001.895    389.36701   -2679.4834   -611.06471    72.201634     62.52845    36.022405    124.46286   -312209.69 
    1260    79.579957    162631.51    72.202039    72.202039    36.022607          120    18067.165    18856.769   -35207.196    477.01605    -2692.691   -556.69078    72.202039    62.528801    36.022607    572.24597   -312209.94 
    1270    79.250259    162635.18    72.202581    72.202582    36.022878          120    18028.488     19258.95    -35027.59    607.20659   -2368.6097   -620.74682    72.202581     62.52927    36.022878    753.28254   -312210.34 
    1280    79.606598    162640.08    72.203306    72.203307    36.023239          120    17791.941    19452.697   -35076.146    825.75908   -2188.2599   -193.61114    72.203306    62.529898    36.023239    722.83067   -312211.38 
    1290    79.270149    162646.12    72.204201    72.204201    36.023686          120    17599.517    19422.525   -35207.937    579.66161   -2206.2851   -241.68176    72.204201    62.530673    36.023686    604.70164   -312211.65 
    1300     78.51414    162653.02    72.205222    72.205223    36.024195          120    17590.537    19178.053   -35836.911    503.58441   -2108.6937   -121.21633    72.205222    62.531557    36.024195    310.55982   -312210.64 
    1310    78.639215    162660.24     72.20629    72.206291    36.024728          120    17239.376    18813.556   -35797.942    547.51144   -2228.4095    151.45491     72.20629    62.532482    36.024728    84.996478    -312211.8 
    1320    77.705956    162667.33    72.207339     72.20734    36.025252          120     17138.59    18733.658   -35992.629    711.28081   -2308.8912    58.409384    72.207339    62.533391    36.025252   -40.127296   -312210.95 
    1330    78.103833    162674.09     72.20834    72.208341    36.025751          120    17352.871    18617.202   -35688.131    951.51123   -2390.8697    48.464066     72.20834    62.534257    36.025751    93.980573   -312212.33 
    1340    77.977891    162680.75    72.209325    72.209325    36.026242          120    17505.893    18408.341   -35144.426    939.99622   -2688.1755    338.57855    72.209325     62.53511    36.026242    256.60267   -312212.85 
    1350    78.177967    162687.59    72.210337    72.210338    36.026747          120    17365.539    18216.087   -34960.618    803.32027   -2549.8991    209.05012    72.210337    62.535987    36.026747    207.00279   -312213.72 
    1360    77.771514    162694.49    72.211358    72.211358    36.027257          120    17022.759    17873.892   -35223.572    437.16023   -2242.9796   -282.33474    72.211358    62.536871    36.027257   -108.97332   -312213.58 
    1370    77.846942    162700.92    72.212309     72.21231    36.027731          120    17054.003    17619.252   -35579.302    532.31921    -2206.723    -85.39227    72.212309    62.537695    36.027731   -302.01562   -312214.17 
    1380    78.007059    162706.54     72.21314    72.213141    36.028146          120    17107.801    17347.023   -35766.545    408.19802   -2285.0452    69.092891     72.21314    62.538414    36.028146   -437.24014   -312214.82 
    1390    78.269805    162711.05    72.213808    72.213808    36.028479          120    16712.669    17178.719    -36147.06    443.88549   -1968.5302     402.8739    72.213808    62.538993    36.028479   -751.89051   -312215.78 
    1400    77.601743    162714.03    72.214248    72.214248    36.028698          120    16609.458    17336.393   -36030.763     578.4156   -1730.2549    474.77402    72.214248    62.539374    36.028698   -694.97073   -312214.78 
    1410    78.036826    162715.53     72.21447     72.21447    36.028809          120    16366.833    17747.827   -36158.299    767.11307   -2093.7619    600.42745     72.21447    62.539566    36.028809   -681.21314   -312215.47 
    1420    78.170789    162715.69    72.214495    72.214495    36.028821          120    16614.246    17718.712   -35927.779    985.38557   -2188.2282     588.5199    72.214495    62.539587    36.028821   -531.60686   -312215.93 
    1430    77.762956    162714.85     72.21437     72.21437    36.028759          120    17230.834    17708.477   -36031.488    1005.3689   -2367.9458    595.29042     72.21437    62.539479    36.028759   -364.05903   -312214.74 
    1440     77.25098    162713.33    72.214145    72.214146    36.028647          120    17397.158    17847.518   -36155.253    939.87805   -2783.7376    376.69927    72.214145    62.539285    36.028647   -303.52581   -312213.57 
    1450    77.900633     162711.3    72.213844    72.213845    36.028497          120     17069.96    18126.917   -35857.689     943.0679   -3363.9883    138.20796    72.213844    62.539024    36.028497   -220.27089   -312214.91 
    1460    77.673405    162708.93    72.213494    72.213494    36.028322          120     16973.06    18205.023   -35513.246    892.41291   -3370.5648   -98.050062    72.213494    62.538721    36.028322   -111.72099   -312214.37 
    1470    78.240703    162706.44    72.213126    72.213126    36.028139          120    16886.464    18381.422   -35355.593    830.55744    -2977.801   -162.46162    72.213126    62.538402    36.028139   -29.235414   -312215.21 
    1480    78.305383    162703.96    72.212759    72.212759    36.027955          120    16776.948    18425.115   -35679.446    804.33556   -2585.6808   -157.23686    72.212759    62.538084    36.027955   -159.12793   -312215.02 
    1490    78.217881    162701.26    72.212359     72.21236    36.027756          120    16828.654    18052.859    -35905.88    779.92179   -2452.7726   -57.119955    72.212359    62.537738    36.027756   -341.45541   -312214.17 
    1500    78.891745    162698.05    72.211884    72.211884    36.027519          120     16916.73    17798.754   -35904.449    1075.8623   -2585.0437   -71.381522    72.211884    62.537326    36.027519   -396.32144   -312215.28 
    1510    78.891698    162694.18    72.211312    72.211313    36.027234          120    16382.317     17983.37   -35975.614    1168.5157   -2734.5141    124.10857    72.211312    62.536831    36.027234   -536.64244   -312214.18 
    1520    79.416523    162689.47    72.210615    72.210616    36.026886          120    16311.479    18086.264   -36015.332    1107.9752   -3131.9755    336.16067    72.210615    62.536228    36.026886   -539.19627   -312214.23 
    1530     78.92518    162683.96      72.2098      72.2098    36.026479          120    16599.057    18218.473   -35941.166    1032.9738   -3441.3139    124.52647      72.2098    62.535522    36.026479   -374.54535   -312212.66 
    1540    79.058999    162677.93    72.208908    72.208908    36.026034          120    16720.049    18296.252   -35941.655    798.11775    -3479.421    144.42228    72.208908    62.534749    36.026034   -308.45147   -312212.47 
    1550    78.919957    162671.56    72.207965    72.207966    36.025564          120    16976.239    17918.946    -35607.03     881.0002   -3506.7743   -274.79795    72.207965    62.533933    36.025564    -237.2815   -312211.27 
    1560    78.804241    162664.99    72.206993    72.206993    36.025079          120    17114.978    17839.635   -35508.879    1161.8118   -3363.0771   -588.73364    72.206993    62.533091    36.025079   -184.75523   -312210.43 
    1570     79.34497    162658.35     72.20601    72.206011    36.024589          120    17326.161    18139.359   -35331.813    1250.3569    -3159.436   -443.11858     72.20601     62.53224    36.024589    44.568958   -312210.52 
    1580    80.136613    162652.06    72.205079     72.20508    36.024124          120    17546.346    18334.268   -34991.542    1184.0459    -2978.389   -145.98848    72.205079    62.531434    36.024124    296.35727   -312211.58 
    1590    79.854653    162646.51    72.204259    72.204259    36.023715          120    17711.235    18374.623   -35287.069    1132.8307   -2448.2989   -303.44437    72.204259    62.530723    36.023715    266.26286   -312210.37 
    1600    80.130102    162641.77    72.203556    72.203557    36.023364          120    17858.392    18821.515   -34905.784    748.21426   -2099.1072   -382.10195    72.203556    62.530115    36.023364    591.37445   -312210.12 
    1610    80.322307    162638.31    72.203045    72.203045    36.023109          120    18087.211    18803.814    -34378.63    667.73631   -1897.1019   -478.45677    72.203045    62.529672    36.023109    837.46507   -312209.61 
    1620    81.570387    162636.51    72.202779    72.202779    36.022976          120     18083.72    18448.789   -34389.496    853.08824   -1997.4425   -633.94067    72.202779    62.529441    36.022976    714.33757   -312210.95 
    1630    81.537933    162636.14    72.202724    72.202725    36.022949          120    18009.931    18478.225   -34765.371    832.52037   -2285.1814   -609.55795    72.202724    62.529394    36.022949    574.26174   -312210.33 
    1640    81.812717    162636.84    72.202828    72.202829    36.023001          120    17693.963    18449.845   -35248.898    926.84656   -2581.4854   -749.14724    72.202828    62.529484    36.023001     298.3035   -312210.02 
    1650    81.816606     162638.1    72.203014    72.203015    36.023094          120    17298.224    18542.649   -35334.846    937.41208   -3271.4519     -639.058    72.203014    62.529645    36.023094    168.67567   -312209.66 
    1660    81.825496    162639.67    72.203245    72.203246    36.023209          120    17317.468    18769.819   -35364.533    694.15489   -3063.5998   -206.10101    72.203245    62.529845    36.023209    240.91778   -312208.63 
    1670     81.57571     162641.6    72.203531    72.203532    36.023352          120    17318.542    18637.561   -35479.706    715.56534   -2895.6421   -163.79346    72.203531    62.530093    36.023352    158.79898   -312207.74 
    1680    81.766729    162643.72    72.203845    72.203846    36.023508          120    17164.366    18377.455   -35735.859    1001.6992   -3121.6874   -216.52794    72.203845    62.530365    36.023508   -64.679286   -312208.05 
    1690    81.884187    162645.68    72.204135    72.204135    36.023653          120    17123.325    18350.968   -35745.275      1128.62   -2570.7479   -55.053959    72.204135    62.530616    36.023653   -90.327537   -312207.72 
    1700    81.503625    162647.38    72.204387    72.204387    36.023779          120    17095.143    18030.842   -35523.928    907.90783    -2298.837    11.954847    72.204387    62.530834    36.023779   -132.64737   -312206.55 
    1710    81.305207    162648.78    72.204594    72.204594    36.023882          120    17369.707    17541.687   -35341.232    745.58338   -1676.2139   -176.59187    72.204594    62.531013    36.023882   -143.27961   -312205.91 
    1720     81.71306    162649.86    72.204755    72.204755    36.023962          120     17258.44    17838.994   -35265.478    692.88604   -1740.4748   -177.69503    72.204755    62.531152    36.023962   -56.014648   -312206.55 
    1730    82.893519    162650.83    72.204897    72.204898    36.024033          120    17287.657    18365.351   -34991.789    509.90302   -1977.8662    53.513758    72.204897    62.531276    36.024033    220.40614   -312208.61 
    1740    83.170901    162652.17    72.205096    72.205097    36.024132          120    17571.022    18617.596   -34689.748    366.16245   -2195.4929   -179.26963    72.205096    62.531448    36.024132    499.62344   -312209.17 
    1750    82.563138    162654.36    72.205419     72.20542    36.024294          120    17610.621    18721.077   -34884.188    527.06292   -2319.7488   -492.00019    72.205419    62.531728    36.024294    482.50319   -312208.25 
    1760    82.242645     162657.4    72.205869     72.20587    36.024518          120    17663.465    18935.965   -34927.845    754.12892   -2471.3947   -688.96217    72.205869    62.532118    36.024518     557.1952   -312207.75 
    1770    81.886022    162661.35    72.206455    72.206455     36.02481          120    17603.216    18843.021   -34985.555     1009.684   -2535.0751   -579.89753    72.206455    62.532625     36.02481    486.89413   -312207.67 
    1780    81.944399    162666.06    72.207151    72.207152    36.025158          120    17554.863    18763.992   -35340.001    1020.8012   -2583.9439   -458.39551    72.207151    62.533228    36.025158    326.28475   -312208.25 
    1790    82.435187    162671.27    72.207922    72.207922    36.025542          120    17749.678    18804.236   -35207.708    817.76603   -2727.6714   -268.17906    72.207922    62.533895    36.025542    448.73567   -312209.53 
    1800    81.874008    162677.09    72.208782    72.208783    36.025972          120    17666.403    18463.755   -35107.356    911.23833   -2563.4614   -71.252413    72.208782    62.534641    36.025972    340.93426    -312208.8 
    1810    82.256798    162683.36     72.20971    72.209711    36.026435          120    17642.539    18229.058    -34773.44    1091.8468   -2571.3806    49.825757     72.20971    62.535444    36.026435    366.05245   -312209.89 
    1820    81.568234    162690.09    72.210706    72.210706    36.026931          120     17675.41    18293.024    -34783.22    1167.9616   -2426.8358   -110.13773    72.210706    62.536306    36.026931    395.07117   -312209.54 
    1830    81.039154    162697.27    72.211769     72.21177    36.027462          120    17759.504    18031.713   -35202.066    1247.8226   -2150.3731   -58.057202    72.211769    62.537227    36.027462    196.38373   -312209.26 
    1840     80.98148    162704.54    72.212845    72.212845    36.027998          120    17544.969    17779.732   -35806.541    1048.8746   -2175.2434   -69.537823    72.212845    62.538159    36.027998   -160.61358   -312209.76 
    1850    81.185734    162711.23    72.213834    72.213835    36.028492          120    17007.066    17633.662   -35933.543    831.17222   -2333.0096   -31.373874    72.213834    62.539016    36.028492   -430.93846    -312211.1 
    1860    81.056414    162716.92    72.214676    72.214676    36.028912          120    16982.261    17650.042   -35583.753    929.00464   -2380.3203    30.546197    72.214676    62.539744    36.028912   -317.14996   -312211.54 
    1870    80.481781    162721.78    72.215394    72.215395     36.02927          120    16983.314    17998.785   -35791.202    1133.4119   -2762.2005   -203.26865    72.215394    62.540367     36.02927   -269.70072   -312211.25 
    1880    80.296266    162725.93    72.216009     72.21601    36.029577          120    17140.447    17722.729   -35840.499    924.86031   -2835.2882    -383.3336    72.216009    62.540899    36.029577   -325.77468    -312211.8 
    1890    80.499254    162729.28    72.216504    72.216505    36.029824          120    17020.741    17583.295   -36054.974    964.70548   -2947.4602   -405.43688    72.216504    62.541328    36.029824   -483.64566   -312212.96 
    1900     79.67441    162731.65    72.216855    72.216856    36.029999          120    17250.894    17691.527   -35834.241    792.10023   -2900.7014    11.060824    72.216855    62.541632    36.029999   -297.27322   -312212.32 
    1910    79.202561    162733.34    72.217105    72.217106    36.030124          120     17469.58    17785.225   -36072.391     652.5581   -2548.6989    15.919509    72.217105    62.541848    36.030124   -272.52882   -312212.39 
    1920    79.286681    162734.41    72.217263    72.217264    36.030203          120    17360.721    17452.885   -36278.415    888.66546   -2570.7297    -101.2879    72.217263    62.541985    36.030203   -488.26975    -312213.6 
    1930    79.257235    162734.52    72.217279    72.217279    36.030211          120    16994.792    17443.147   -36171.768     818.3794   -2565.6962   -619.84992    72.217279    62.541999    36.030211   -577.94282   -312214.52 
    1940    79.401426    162733.57    72.217139    72.217139    36.030141          120    16872.648    17718.758   -35764.427    701.69413   -2420.5546   -371.00034    72.217139    62.541877    36.030141   -391.00717    -312215.9 
    1950    78.663921    162731.87    72.216888    72.216888    36.030015          120    16856.096    17787.301   -35580.441      730.076    -2472.399   -177.96838    72.216888     62.54166    36.030015   -312.34792   -312215.44 
    1960    78.262973    162729.68    72.216564    72.216564    36.029854          120    17238.907    18021.773   -35378.011    753.92072   -2765.2136   -357.83822    72.216564    62.541379    36.029854   -39.110263   -312215.33 
    1970    78.930785    162727.46    72.216235    72.216236     36.02969          120    17508.714    18129.176   -35403.018    591.21043   -2912.6698   -189.00966    72.216235    62.541095     36.02969     78.29063   -312217.06 
    1980    77.821943    162725.37    72.215926    72.215927    36.029536          120    17273.244    17919.176   -36297.965    517.18392   -3171.7099   -106.35849    72.215926    62.540827    36.029536   -368.51518   -312215.98 
    1990    77.582004    162722.65    72.215524    72.215525    36.029335          120    16811.155    17633.434    -36904.65     536.1465    -3264.017   -192.17273    72.215524    62.540479    36.029335    -820.0203   -312215.92 
    2000    77.100313    162718.56    72.214919     72.21492    36.029033          120    16939.696    17695.766   -36763.939    826.87129   -3055.0365   -123.82758    72.214919    62.539955    36.029033   -709.49253   -312215.41 
    2010    77.017259    162713.34    72.214146    72.214147    36.028648          120    17051.054    18059.137   -35844.898    1135.7814   -2796.3211    130.06068    72.214146    62.539286    36.028648   -244.90232   -312215.44 
    2020    78.046851    162707.81    72.213328    72.213329     36.02824          120    17361.498    18396.081   -35462.442    1155.2657   -2531.5034    163.36461    72.213328    62.538578     36.02824    98.379108   -312217.73 
    2030    78.188793    162702.69     72.21257    72.212571    36.027861          120    17837.606    18560.412   -34999.239    894.29646   -2346.3188    242.98184     72.21257    62.537921    36.027861    466.25974   -312218.44 
    2040    77.399467    162698.62    72.211968    72.211969    36.027561          120    18331.975    18522.943   -34665.787    901.89377   -2165.8949    427.26386    72.211968      62.5374    36.027561    729.71048   -312216.43 
    2050    77.493672    162696.04    72.211587    72.211587    36.027371          120    18415.369    18453.011   -34726.178    1217.5256   -2206.1463    497.26196    72.211587    62.537069    36.027371    714.06746   -312216.62 
    2060    77.915969    162694.82    72.211406    72.211407    36.027281          120    18145.781    18052.064   -35435.998    1216.7935   -2339.6452    491.97046    72.211406    62.536913    36.027281    253.94876   -312217.45 
    2070    77.563188    162694.16    72.211308    72.211309    36.027232          120    17935.455    18210.182   -36303.765    1059.0199   -2583.8775    503.09347    72.211308    62.536828    36.027232   -52.709474   -312216.67 
    2080    77.978634    162693.44    72.211203    72.211203    36.027179          120    17531.461    18146.834   -36228.716    984.65581    -2698.515    175.54047    72.211203    62.536737    36.027179   -183.47381   -312217.12 
    2090    78.356637    162692.41     72.21105     72.21105    36.027103          120    17138.767    18041.365   -36052.152    669.05251    -2919.879    47.518886     72.21105    62.536604    36.027103   -290.67324   -312217.53 
    2100    78.221008    162690.92    72.210829     72.21083    36.026993          120    16942.948    18301.516   -35554.234     377.2891   -3225.9795    97.850466    72.210829    62.536413    36.026993   -103.25704      -312217 
    2110    78.055844     162689.3     72.21059     72.21059    36.026873          120     17226.51    18492.116   -35280.438    650.07975   -3310.6904     14.23412     72.21059    62.536206    36.026873    146.06256   -312216.07 
    2120    78.620919    162687.98    72.210394    72.210395    36.026776          120    17256.241    18192.866   -34903.032    661.22091   -3228.9713   -40.535991    72.210394    62.536036    36.026776    182.02471   -312216.17 
    2130    78.008886    162687.04    72.210256    72.210256    36.026707          120    17284.157    17875.134   -34669.633    567.84739   -2897.2278   -101.62807    72.210256    62.535917    36.026707     163.2193    -312214.7 
    2140    78.516097    162686.41    72.210162    72.210163     36.02666          120    17260.996    17699.175    -34988.44    784.98836   -2553.6106   -183.35426    72.210162    62.535835     36.02666   -9.4230337    -312215.1 
    2150    78.959848     162685.8    72.210072    72.210073    36.026615          120    17072.295    18031.928   -35329.023    575.84898   -2222.7222    -20.06714    72.210072    62.535758    36.026615   -74.933343   -312215.28 
    2160    78.652236    162685.05    72.209961    72.209962     36.02656          120    17025.095    18014.825   -35719.278    289.27952   -2469.6336   -87.481992    72.209961    62.535662     36.02656   -226.45243   -312214.16 
    2170    79.469779     162683.9     72.20979    72.209791    36.026474          120    17269.671    17556.549    -36034.55    258.42627   -2593.1412    -368.3496     72.20979    62.535513    36.026474   -402.77684   -312214.93 
    2180    79.670838    162682.03    72.209514    72.209514    36.026336          120     17316.38    17466.928   -36206.278    710.61185   -2736.3405   -710.49374    72.209514    62.535274    36.026336   -474.32334   -312214.33 
    2190    80.709214    162679.37    72.209121    72.209122    36.026141          120    17556.684    17635.889    -36011.81    706.43256   -2675.1609   -635.56332    72.209121    62.534934    36.026141   -273.07917   -312215.79 
    2200    80.206579    162676.31    72.208667    72.208668    36.025914          120    17645.898    17841.513   -35554.475    534.23649   -2845.2088   -907.11605    72.208667    62.534541    36.025914   -22.354687   -312213.74 
    2210    80.938872    162673.29    72.208221    72.208222    36.025692          120    17472.473    18050.595   -35088.245    863.93234   -2829.1624   -918.68256    72.208221    62.534155    36.025692    144.94117   -312214.17 
    2220    80.216918    162670.64    72.207829    72.207829    36.025496          120    17463.329    18080.405   -34959.101    849.57724   -2778.2059   -343.57315    72.207829    62.533815    36.025496    194.87768   -312211.99 
    2230    80.310232    162668.41    72.207499    72.207499    36.025331          120    17251.958    18207.772   -35270.208    671.63068   -2891.6445    84.736154    72.207499    62.533529    36.025331    63.173947   -312211.71 
    2240    80.958479    162666.37    72.207198    72.207198    36.025181          120    17032.138    18233.218   -35493.793    574.79182   -2421.4839    -175.9618    72.207198    62.533268    36.025181   -76.145549   -312212.32 
    2250    81.332892    162664.28    72.206887    72.206888    36.025026          120    17253.507    18213.296   -35745.452    594.08091   -1987.1306   -154.60574    72.206887    62.532999    36.025026   -92.882825   -312212.38 
    2260     80.94829    162662.12    72.206569    72.206569    36.024867          120    17535.342    18435.737   -35520.461    749.67821   -1912.2549   -7.4341731    72.206569    62.532723    36.024867    150.20586   -312211.01 
[...]
   99200    80.055651     162835.7    72.232243    72.232244    36.037677          120    16247.901    18293.581   -36056.906     1333.711   -2871.4544   -569.85921    72.232243    62.554958    36.037677   -505.14142   -312223.46 
   99210    80.008247    162832.23     72.23173    72.231731    36.037421          120    16613.521     18465.36   -35997.959    903.80371   -2789.1904    -619.7554     72.23173    62.554514    36.037421   -306.35914   -312223.39 
   99220    79.729764    162828.16    72.231129    72.231129    36.037121          120    16440.849    18800.637   -35620.515    974.91531   -3114.3758   -289.78054    72.231129    62.553993    36.037121   -126.34309   -312222.76 
   99230    80.187639    162823.91      72.2305    72.230501    36.036807          120    16976.581     19005.47    -35331.64    1439.8478   -3188.5001   -212.53018      72.2305    62.553449    36.036807     216.8037   -312223.07 
   99240    79.683849    162820.03    72.229927    72.229927    36.036521          120    17541.469    18732.406   -35329.866    1457.2445   -2366.3889   -259.04389    72.229927    62.552952    36.036521    314.66992   -312222.29 
   99250    80.207469    162816.79    72.229447    72.229447    36.036281          120    17496.635    18903.615   -35096.969    1472.4827    -2450.001   -72.182752    72.229447    62.552536    36.036281    434.42713   -312223.11 
   99260    80.665494     162814.4    72.229094    72.229095    36.036105          120    17519.842    19128.568    -34895.49     1445.874   -2712.0165    -461.4839    72.229094    62.552231    36.036105    584.30692    -312224.1 
   99270    80.454479     162813.1    72.228902    72.228902    36.036009          120    17324.717    18804.452   -34852.205    1408.8688   -2610.0428   -427.91617    72.228902    62.552064    36.036009    425.65457   -312223.63 
   99280    79.677049    162812.57    72.228823    72.228824     36.03597          120    17138.732    18343.136   -35436.575    1275.8582   -2582.6875   -368.97485    72.228823    62.551996     36.03597    15.097742    -312221.8 
   99290    80.644536     162812.1    72.228753    72.228754    36.035935          120    17122.509    18504.912   -36080.703    1225.8162   -2252.9101   -803.63182    72.228753    62.551936    36.035935   -151.09386   -312223.44 
   99300     80.44632    162811.41    72.228651    72.228652    36.035884          120    17532.806    18597.005   -35705.421    927.00902   -2573.5291    -531.6528    72.228651    62.551847    36.035884    141.46332   -312223.03 
   99310     79.73532    162810.97    72.228586    72.228587    36.035852          120    17353.915    19102.815   -35365.782    1256.5237   -2556.2952   -501.49822    72.228586    62.551791    36.035852    363.64927   -312221.47 
   99320    80.445361    162811.21    72.228622    72.228623     36.03587          120    17182.416    19420.587   -35430.117    1664.2702    -2626.346   -423.55046    72.228622    62.551822     36.03587    390.96205   -312222.44 
   99330     80.52289     162812.2    72.228768    72.228768    36.035943          120    17294.783    19217.646   -35478.379    1436.5222   -2788.0269   -124.05934    72.228768    62.551948    36.035943    344.68329   -312222.62 
   99340    80.835888    162813.86    72.229014    72.229015    36.036065          120    17282.561    18890.612    -35071.81    1310.5845   -3078.3551   -151.79585    72.229014    62.552162    36.036065    367.12086   -312223.32 
   99350    80.646252    162816.23    72.229364    72.229365     36.03624          120    17401.028    18838.461   -35259.312    1317.4118   -2749.3753   -356.73292    72.229364    62.552465     36.03624    326.72585   -312222.67 
   99360    80.963875    162819.28    72.229815    72.229815    36.036465          120    17333.779    19135.789    -35045.15    1319.4671   -2660.6854   -283.32559    72.229815    62.552855    36.036465    474.80613   -312222.48 
   99370    80.864304    162823.17    72.230391    72.230391    36.036752          120    17196.649    19287.825   -35292.137      1439.17    -2523.897   -734.71228    72.230391    62.553354    36.036752    397.44571   -312222.24 
   99380    80.928749     162827.8    72.231075    72.231075    36.037094          120    17061.285    18836.413   -35434.196    1384.0753   -2422.5223   -801.67598    72.231075    62.553946    36.037094    154.50069   -312222.44 
   99390    81.184546    162832.73    72.231804    72.231804    36.037457          120    16891.683    18445.904   -35360.808    1542.0827   -2603.6826     -681.442    72.231804    62.554577    36.037457   -7.7402185   -312222.26 
   99400    81.048912    162837.66    72.232533    72.232533    36.037821          120    17218.395    18594.342   -35772.271    1803.5551    -2536.532   -628.79733    72.232533    62.555209    36.037821    13.488724   -312221.51 
   99410    80.648124    162842.57    72.233259     72.23326    36.038183          120    17482.034     18629.15   -36438.489    1871.1123   -2559.2942   -53.262067    72.233259    62.555838    36.038183   -109.10149   -312220.46 
   99420    80.885715    162847.27    72.233954    72.233955     36.03853          120    17221.589    18305.646   -35922.406    1688.9771   -2502.8978   -31.626404    72.233954     62.55644     36.03853   -131.72363   -312221.15 
   99430    81.120372    162851.71     72.23461     72.23461    36.038857          120    17143.063    18287.982   -35614.843    1488.8411   -2869.7458    -162.7754     72.23461    62.557008    36.038857   -61.266094   -312221.04 
   99440    80.868022    162855.95    72.235238    72.235238    36.039171          120    16807.134    18512.092   -35880.575    1371.4682   -2892.2995   -495.29543    72.235238    62.557552    36.039171   -187.11642   -312220.32 
   99450    81.134645    162859.83    72.235812    72.235812    36.039457          120    16633.909    18492.045   -35973.186    1672.6744   -2570.0515   -451.50798    72.235812    62.558049    36.039457   -282.41052   -312220.87 
   99460    81.328434    162863.16    72.236303    72.236304    36.039702          120     16416.12     18591.25   -35932.943    1845.0515   -2567.3122   -524.50437    72.236303    62.558474    36.039702   -308.52431   -312221.16 
   99470      81.2056    162865.96    72.236717    72.236718    36.039909          120    16422.905    18919.178   -35170.146    1689.6823   -2516.0643   -413.07617    72.236717    62.558833    36.039909    57.312204   -312220.85 
   99480    81.713495    162868.81    72.237139     72.23714    36.040119          120    16802.685    18980.926   -35380.733    1274.5994   -2763.6912   -137.85491    72.237139    62.559198    36.040119    134.29272   -312222.05 
   99490    81.256702     162871.9    72.237596    72.237596    36.040347          120    17112.771    18693.283   -35797.007    1083.0315   -2952.0049   -176.89043    72.237596    62.559594    36.040347    3.0157409   -312221.07 
   99500    80.999485    162874.97    72.238049     72.23805    36.040573          120    16814.152    18593.226   -36114.888    1256.5336   -2885.7594   -272.24122    72.238049    62.559986    36.040573   -235.83681    -312220.9 
   99510     81.33556    162877.58    72.238435    72.238435    36.040765          120    16225.427    18592.201   -35982.556    1213.0788   -2931.7101   -800.75013    72.238435     62.56032    36.040765   -388.30911   -312221.66 
   99520    80.797827    162879.44    72.238711    72.238711    36.040903          120    16243.638    18256.782     -35832.9    1390.0038   -2856.3696   -890.83648    72.238711    62.560559    36.040903   -444.15987   -312221.17 
   99530    80.970944    162880.39    72.238851    72.238852    36.040973          120    16306.743    18005.928   -36259.679    1562.3664   -2542.6227   -689.61277    72.238851    62.560681    36.040973    -649.0027   -312221.76 
   99540    80.849179    162880.17    72.238818    72.238819    36.040957          120    16444.501    18175.055    -35728.21    1511.8257   -2338.7595   -361.35286    72.238818    62.560652    36.040957   -369.55146   -312222.27 
   99550     80.91088    162879.26    72.238683    72.238684     36.04089          120      16604.2    18519.116   -35009.862    1539.5049   -2155.1193   -699.48608    72.238683    62.560536     36.04089    37.818122   -312222.98 
   99560    80.435089    162878.35    72.238549    72.238549    36.040822          120    16722.105    18522.207   -35277.698    1328.5604   -2619.1542   -357.06607    72.238549    62.560419    36.040822   -11.128868   -312222.14 
   99570    79.744798    162877.39    72.238407    72.238407    36.040752          120    16849.436    18172.188   -35872.252    1114.2113   -2369.4834   -341.25318    72.238407    62.560296    36.040752   -283.54274   -312221.04 
   99580    80.297569    162875.86    72.238181    72.238181    36.040639          120    16739.018    17746.642   -36274.153     1362.439   -2360.4354   -484.97692    72.238181      62.5601    36.040639   -596.16438   -312222.46 
   99590    81.223234    162873.21    72.237789    72.237789    36.040443          120    16660.249    17911.717   -36709.698    1485.3646   -2725.9625   -387.30683    72.237789    62.559761    36.040443   -712.57726   -312224.51 
   99600    79.651297    162869.24    72.237203    72.237203    36.040151          120     16323.55    18439.867   -36487.706    1563.7064   -2831.2531   -154.47722    72.237203    62.559253    36.040151   -574.76308    -312221.5 
   99610    79.948646    162864.15    72.236449     72.23645    36.039775          120    16218.384    18348.269   -36061.493    1420.2139   -3058.7639    100.58924    72.236449    62.558601    36.039775   -498.28044   -312222.25 
   99620     80.30627    162858.15    72.235563    72.235563    36.039333          120    16854.182    18328.191   -35564.318    1438.0817   -2860.6164   -195.96896    72.235563    62.557833    36.039333   -127.31488   -312223.04 
   99630     79.72086     162851.9    72.234638    72.234639    36.038871          120    16967.489    18643.217   -35506.477    1145.0263   -2730.7112    -625.5008    72.234638    62.557032    36.038871    34.743035    -312221.9 
   99640    80.756804    162845.65    72.233714    72.233715     36.03841          120    16735.096    18383.319   -35576.025    1357.4731    -2918.508   -452.02275    72.233714    62.556232     36.03841   -152.53668   -312224.07 
   99650    79.511582    162839.19     72.23276     72.23276    36.037934          120    17204.729    18461.923   -35696.078    1550.2244   -2859.8149   -429.00687     72.23276    62.555406    36.037934   -9.8087654   -312221.85 
   99660       80.391    162832.69    72.231798    72.231799    36.037454          120    17117.287    18730.779   -36030.499    1327.9848   -2658.8202   -578.21877    72.231798    62.554573    36.037454   -60.811249    -312223.8 
   99670    80.411193    162826.11    72.230825    72.230826    36.036969          120    16838.439    19117.696   -36067.653    1288.6603   -2404.8609   -357.01318    72.230825     62.55373    36.036969   -37.172487   -312223.96 
   99680    80.386374    162819.47    72.229844    72.229844    36.036479          120    16910.066    18822.537   -35849.409    1488.6412   -2579.4609   -28.972459    72.229844     62.55288    36.036479   -38.935622   -312223.83 
   99690    79.943866    162812.83    72.228862    72.228862    36.035989          120    17067.544    19063.444    -35637.09    1419.2471   -2267.8199    252.21929    72.228862     62.55203    36.035989    164.63255   -312223.18 
   99700    80.292674    162806.57    72.227936    72.227936    36.035527          120    17487.041    19470.798   -35154.308    1297.2472   -2407.7638    252.53317    72.227936    62.551228    36.035527    601.17687   -312224.24 
   99710    80.122724    162801.46     72.22718     72.22718     36.03515          120     17597.75     19506.72   -34580.182    1187.5567   -2537.7606    5.1812433     72.22718    62.550573     36.03515    841.42944   -312224.08 
   99720    79.612073    162797.92    72.226656    72.226657    36.034889          120    17506.402    19085.868   -34558.987    1386.9289    -2441.746    31.332102    72.226656     62.55012    36.034889    677.76109   -312223.23 
   99730    79.943088    162795.72    72.226331    72.226331    36.034727          120    17488.865    19244.496   -34855.453    1425.1148   -2795.1493   -418.79444    72.226331    62.549838    36.034727    625.96909   -312223.89 
   99740    79.430692    162794.74    72.226186    72.226187    36.034655          120    17653.397    19358.139   -35032.911    1444.4829   -2994.4167   -648.76214    72.226186    62.549713    36.034655    659.54158   -312222.98 
   99750    79.650679    162795.02    72.226228    72.226229    36.034676          120    17647.629     18939.79    -34766.53    1592.5481   -3038.2959   -1039.3554    72.226228    62.549749    36.034676    606.96314   -312223.56 
   99760     79.59905    162796.45    72.226439    72.226439    36.034781          120    17355.114    18775.408   -34892.529    1248.4076   -2791.8994   -1008.1852    72.226439    62.549931    36.034781    412.66446   -312223.62 
   99770    79.992143    162798.71    72.226773    72.226774    36.034948          120    17514.476    18857.183   -35113.677     1381.321   -2787.2817   -720.35127    72.226773    62.550221    36.034948    419.32706   -312224.63 
   99780    79.370708    162801.78    72.227228    72.227228    36.035174          120    17527.351    18938.234   -35120.551    1461.1117   -2583.8196   -180.96104    72.227228    62.550615    36.035174    448.34479    -312223.5 
   99790    80.509273    162805.67    72.227802    72.227803    36.035461          120    17367.469    18705.357   -35186.871    1591.4861   -2462.8086   -146.20681    72.227802    62.551112    36.035461    295.31821   -312225.54 
   99800    79.289282    162810.14    72.228464    72.228464    36.035791          120    17064.702     18875.38   -34908.966    1723.5794   -2354.3854   -109.82524    72.228464    62.551685    36.035791    343.70529   -312223.18 
   99810    79.421331    162815.26    72.229221    72.229221    36.036168          120    17279.522    19212.487   -35168.957     1698.185   -2253.2364   -269.74001    72.229221    62.552341    36.036168    441.01743   -312223.24 
   99820    79.677688    162821.22    72.230102    72.230102    36.036608          120    17159.908    19419.342   -35163.077    1411.8733   -2755.3912   -543.35897    72.230102    62.553104    36.036608    472.05762   -312224.29 
   99830    79.666724    162828.04    72.231111    72.231112    36.037112          120    17144.101    19112.969   -35278.825    1315.2556   -3126.5608   -538.77012    72.231111    62.553978    36.037112    326.08174   -312224.07 
   99840    80.105025    162835.43    72.232204    72.232205    36.037657          120    16948.794    18868.431   -35822.336    1327.9265   -2712.5455   -655.46249    72.232204    62.554924    36.037657    -1.703662   -312224.84 
   99850    78.942876    162842.79    72.233292    72.233293      36.0382          120    16845.348    18655.419   -36498.377     1242.593    -2402.076   -448.64236    72.233292    62.555866      36.0382   -332.53674   -312222.87 
   99860    80.162782    162849.54    72.234289     72.23429    36.038697          120    17170.093    18317.276   -36345.127    1303.6518   -2503.5297   -407.55104    72.234289     62.55673    36.038697   -285.91933   -312224.86 
   99870    80.586376    162855.72    72.235204    72.235204    36.039153          120    17249.707    18108.835   -35416.887    1319.6385   -2593.7103   -462.37298    72.235204    62.557522    36.039153   -19.448375    -312225.6 
   99880    79.157448    162861.85     72.23611    72.236111    36.039606          120    17230.224    18324.773   -34967.698    1318.7895   -2928.0693   -346.95651     72.23611    62.558307    36.039606     195.7662   -312222.66 
   99890    79.580676     162868.3    72.237063    72.237064    36.040081          120     17335.52    18582.208   -35557.352    1335.0359   -3062.6376   -226.20291    72.237063    62.559132    36.040081    120.12503   -312223.71 
   99900    80.121499    162874.91    72.238041    72.238042    36.040569          120    16914.111    18349.224   -36020.323    1231.5943   -2824.0845    211.10171    72.238041    62.559979    36.040569   -252.32924   -312224.52 
   99910    79.740115    162881.01    72.238943    72.238944    36.041019          120    16228.743    17990.392   -36119.732    1377.6858   -3098.6604    248.49693    72.238943     62.56076    36.041019   -633.53257      -312224 
   99920    79.349343    162885.93     72.23967    72.239671    36.041382          120     16510.27     17862.16   -36461.179    1229.1677   -2500.0298   -47.840201     72.23967     62.56139    36.041382   -696.24993   -312223.08 
   99930    79.638394    162889.48    72.240194    72.240195    36.041644          120    16517.141    18077.935   -36929.908    1440.5065    -2207.085   -163.73784    72.240194    62.561844    36.041644   -778.27733   -312223.22 
   99940    79.572283    162891.56    72.240503    72.240503    36.041797          120    16414.746    18196.109   -36407.044    1605.9965   -2286.2715   -301.55341    72.240503    62.562111    36.041797   -598.72959   -312223.05 
   99950    79.916105    162892.46    72.240635    72.240635    36.041863          120    16263.182    18383.755   -36165.954    1544.3491   -2457.1426   -180.95444    72.240635    62.562226    36.041863   -506.33931   -312223.56 
   99960    80.165725    162892.34    72.240617    72.240618    36.041854          120    16440.873    18143.405   -36107.031    1498.9602   -2298.3887   -140.21883    72.240617     62.56221    36.041854   -507.58432   -312223.88 
   99970    79.698538    162891.24    72.240455    72.240455    36.041773          120    16542.919    17994.354   -35994.476    1600.1991   -2372.0417   -273.31176    72.240455    62.562069    36.041773   -485.73431   -312222.83 
   99980    79.668773    162889.15    72.240145    72.240146    36.041619          120    16640.081    17858.801   -36435.491    1459.7679   -2406.7343    -845.5034    72.240145    62.561802    36.041619   -645.53648   -312222.22 
   99990    79.785245    162885.88    72.239662    72.239662    36.041378          120    16394.363      18011.6   -35625.901    1146.8775   -2481.9094   -481.26405    72.239662    62.561383    36.041378   -406.64588   -312222.36 
  100000     80.09131    162881.79    72.239057    72.239058    36.041076          120    16202.834    18406.529   -35598.777    1176.9804   -2912.7546   -216.21814    72.239057     62.56086    36.041076   -329.80445    -312223.1 
Loop time of 35604 on 1 procs for 100000 steps with 14848 atoms

Performance: 0.243 ns/day, 98.900 hours/ns, 2.809 timesteps/s
100.0% CPU use with 1 MPI tasks x no OpenMP threads

MPI task timing breakdown:
Section |  min time  |  avg time  |  max time  |%varavg| %total
---------------------------------------------------------------
Pair    | 31325      | 31325      | 31325      |   0.0 | 87.98
Bond    | 0.057997   | 0.057997   | 0.057997   |   0.0 |  0.00
Kspace  | 1460.5     | 1460.5     | 1460.5     |   0.0 |  4.10
Neigh   | 1923.6     | 1923.6     | 1923.6     |   0.0 |  5.40
Comm    | 40.825     | 40.825     | 40.825     |   0.0 |  0.11
Output  | 1.4512     | 1.4512     | 1.4512     |   0.0 |  0.00
Modify  | 836.6      | 836.6      | 836.6      |   0.0 |  2.35
Other   |            | 15.86      |            |       |  0.04

Nlocal:    14848 ave 14848 max 14848 min
Histogram: 1 0 0 0 0 0 0 0 0 0
Nghost:    46910 ave 46910 max 46910 min
Histogram: 1 0 0 0 0 0 0 0 0 0
Neighs:    1.01033e+07 ave 1.01033e+07 max 1.01033e+07 min
Histogram: 1 0 0 0 0 0 0 0 0 0

Total # of neighbors = 10103312
Ave neighs/atom = 680.449
Ave special neighs/atom = 0
Neighbor list builds = 5726
Dangerous builds = 0
 
All done!
Total wall time: 9:59:59
