LAMMPS (16 Mar 2018)
Reading data file ...
  triclinic box = (0 0 0) to (9.208 7.97436 18.376) with tilt (-4.604 0 0)
  1 by 1 by 1 MPI processor grid
  reading atoms ...
  116 atoms
Finding 1-2 1-3 1-4 neighbors ...
  special bond factors lj:   0          0          0         
  special bond factors coul: 0          0          0         
  0 = max # of 1-2 neighbors
  0 = max # of 1-3 neighbors
  0 = max # of 1-4 neighbors
  1 = max # of special neighbors
Replicating atoms ...
  triclinic box = (0 0 0) to (73.664 63.7949 36.752) with tilt (-36.832 0 0)
  1 by 1 by 1 MPI processor grid
  14848 atoms
Finding 1-2 1-3 1-4 neighbors ...
  special bond factors lj:   0          0          0         
  special bond factors coul: 0          0          0         
  0 = max # of 1-2 neighbors
  0 = max # of 1-3 neighbors
  0 = max # of 1-4 neighbors
  1 = max # of special neighbors
  Time spent = 0.0050869 secs
PPPM initialization ...
WARNING: System is not charge neutral, net charge = -0.2048 (../kspace.cpp:302)
  using 12-bit tables for long-range coulomb (../kspace.cpp:321)
  G vector (1/distance) = 0.201681
  grid = 36 50 24
  stencil order = 5
  estimated absolute RMS force accuracy = 0.00105653
  estimated relative force accuracy = 7.33721e-05
  using double precision FFTs
  3d grid and FFT values/proc = 65395 43200
Neighbor list info ...
  update every 1 steps, delay 0 steps, check yes
  max neighbors/atom: 2000, page size: 100000
  master list distance cutoff = 15.3
  ghost atom cutoff = 15.3
  binsize = 7.65, bins = 15 9 5
  3 neighbor lists, perpetual/occasional/extra = 3 0 0
  (1) pair morse, perpetual
      attributes: half, newton on
      pair build: half/bin/newton/tri
      stencil: half/bin/3d/newton/tri
      bin: standard
  (2) pair buck, perpetual, copy from (1)
      attributes: half, newton on
      pair build: copy
      stencil: none
      bin: none
  (3) pair lj/cut/coul/long, perpetual, copy from (1)
      attributes: half, newton on
      pair build: copy
      stencil: none
      bin: none
Setting up Verlet run ...
  Unit style    : metal
  Current step  : 0
  Time step     : 0.001
Per MPI rank memory allocation (min/avg/max) = 145.7 | 145.7 | 145.7 Mbytes
Step Temp Volume Cella Cellb Cellc CellGamma Pxx Pyy Pzz Pxy Pxz Pyz Lx Ly Lz Press PotEng 
       0           90    172711.88       73.664    73.664001       36.752          120   -210451.84   -210460.97   -281448.44    8.3860999   -2.2923048     3.059506       73.664    63.794896       36.752   -234120.41   -309191.56 
      10    259.57175    172485.58    73.631813    73.631813    36.735941          120   -213823.57   -213894.04   -261310.46    73.000548   -5.4029195   -103.34554    73.631813    63.767021    36.735941   -229676.02   -309580.74 
      20    503.27169    171829.06    73.538275    73.538275    36.689274          120   -212392.02   -212097.83   -200542.03    21.541307   -160.09172    -215.9906    73.538275    63.686015    36.689274   -208343.96   -310164.26 
      30    446.92524    170862.66     73.40015     73.40015    36.620361          120   -191776.27   -191295.92   -116434.79   -182.28704   -563.56607   -277.15238     73.40015    63.566395    36.620361   -166502.33   -310210.09 
      40    209.74699    169835.03    73.252703    73.252704    36.546798          120   -158507.16   -158252.45    -37420.79   -385.44777    -983.4979   -333.41225    73.252703    63.438702    36.546798   -118060.14   -309870.97 
      50    276.09224    168957.97    73.126388    73.126389    36.483778          120   -120699.74   -120632.93    -2091.702   -446.06571   -1104.3601   -511.59609    73.126388    63.329311    36.483778   -81141.457   -310059.33 
      60    603.88223    168262.09    73.025856    73.025857    36.433621          120   -87078.303   -86927.828   -35389.157   -558.11627   -2012.2248   -419.48365    73.025856    63.242247    36.433621    -69798.43   -310748.96 
      70     802.2683    167671.87    72.940371    72.940371    36.390971          120   -56896.363   -56415.196   -96018.555   -971.98463   -2518.3245   -260.87586    72.940371    63.168215    36.390971   -69776.705   -311238.62 
      80    651.82447    167122.02    72.860551    72.860552    36.351148          120   -32103.387   -32108.786   -134782.02   -1491.5368   -2930.6243    160.80254    72.860551    63.099089    36.351148   -66331.398   -311057.86 
      90    383.48425    166587.89    72.782846    72.782846     36.31238          120   -18595.303   -18916.857   -144968.12   -1753.2015   -3559.4858    477.85112    72.782846    63.031794     36.31238    -60826.76   -310619.18 
     100     424.3745    166071.52    72.707567    72.707568    36.274822          120   -1785.6055   -1382.3417      -122754   -1605.8685   -3431.6992    192.24904    72.707567    62.966601    36.274822   -41973.981   -310753.65 
     110     584.1975    165600.14    72.638711    72.638712    36.240469          120    16085.175    16675.379    -79136.06   -1635.2201    -3071.547    41.353225    72.638711     62.90697    36.240469   -15458.502   -311131.75 
     120    549.72043    165206.75    72.581146    72.581147    36.211749          120    23523.347    24080.981   -28314.449   -1671.1495   -3089.1652   -423.10798    72.581146    62.857117    36.211749    6429.9594   -311143.47 
     130    438.09054    164907.34    72.537273    72.537274     36.18986          120    18787.885    20003.853    10167.366   -1776.4247   -3263.3484    -554.3994    72.537273    62.819122     36.18986    16319.701   -310990.72 
     140    416.09371    164695.04    72.506132    72.506133    36.174323          120    12548.685    13242.961    17679.831   -1553.9668   -3299.9222   -496.66032    72.506132    62.792153    36.174323    14490.492   -310997.25 
     150    484.94212    164546.07    72.484264    72.484264    36.163413          120     5695.703    6589.1313   -11423.038   -1669.7879   -2946.2391   -196.90541    72.484264    62.773214    36.163413    287.26538   -311185.35 
     160     524.1465    164424.37     72.46639     72.46639    36.154495          120   -4213.8923    -2155.786   -51256.626   -1640.7045   -2924.7303    3.0005312     72.46639    62.757735    36.154495   -19208.768   -311330.32 
     170      468.656    164294.34    72.447282    72.447282    36.144962          120   -8624.3218   -6021.0517   -79093.936   -1001.7821   -3202.9099   -233.28887    72.447282    62.741187    36.144962   -31246.436   -311295.25 
     180    393.57209     164137.8    72.424266    72.424266    36.133479          120   -4028.7611    -1380.396   -91221.343   -764.57969   -3072.4909   -258.23418    72.424266    62.721255    36.133479   -32210.167    -311210.5 
     190    391.75827    163956.77     72.39763     72.39763     36.12019          120    2242.4569    4744.5357   -82784.645   -379.89061    -2555.629    74.045576     72.39763    62.698187     36.12019   -25265.884   -311258.31 
     200    425.62788    163765.57    72.369475    72.369476    36.106144          120    6263.6968    8822.8529   -58635.368   -561.85726   -2348.5072   -47.681517    72.369475    62.673805    36.106144   -14516.273   -311379.01 
     210    413.54473    163582.39    72.342483    72.342483    36.092677          120    9716.0097    12648.475   -33055.023   -558.01209    -2585.176    132.06509    72.342483    62.650428    36.092677   -3563.5125   -311413.24 
     220    373.36039    163422.55    72.318913    72.318914    36.080918          120    12601.181    14352.908   -16676.306   -60.317627   -2766.3843    34.003555    72.318913    62.630017    36.080918    3425.9277   -311387.61 
     230    360.13491    163292.55    72.299731    72.299731    36.071347          120    13131.548     13421.23    -15873.13   -90.114781   -3255.1002   -434.70188    72.299731    62.613404    36.071347    3559.8824    -311407.9 
     240     371.4274    163187.44    72.284215    72.284215    36.063606          120    10807.266    10349.567    -27612.44   -136.11565   -3480.1219   -335.38566    72.284215    62.599967    36.063606   -2151.8689   -311475.85 
     250    377.09659    163094.21    72.270447    72.270447    36.056737          120    7981.7945    7641.1073   -45221.004   -264.20633   -3439.2337   -567.84666    72.270447    62.588043    36.056737   -9866.0342   -311535.53 
     260    355.46293    162999.14    72.256402    72.256403     36.04973          120    8229.8452    8199.2195   -59639.973   -443.58265   -3199.8806   -506.11131    72.256402    62.575881     36.04973   -14403.636   -311542.85 
     270    328.23705    162895.04    72.241016    72.241017    36.042053          120    9815.9568    9829.0294   -64604.006   -720.39104   -2819.4229    11.264427    72.241016    62.562556    36.042053    -14986.34   -311534.73 
     280    321.97292    162782.16    72.224326    72.224326    36.033726          120    12081.647    13031.944   -57923.545   -548.08517   -2228.1471    314.41418    72.224326    62.548101    36.033726   -10936.651   -311563.14 
     290    326.39531    162667.94    72.207429    72.207429    36.025296          120    15701.408    17495.473    -43419.87   -738.11137   -2100.0715    582.72969    72.207429    62.533468    36.025296   -3407.6631   -311612.82 
     300    318.57992    162563.75     72.19201    72.192011    36.017604          120    18201.055    20356.476   -29072.938   -657.82895   -1930.8239    351.58126     72.19201    62.520115    36.017604    3161.5311   -311638.53 
     310    301.68115    162478.23    72.179348    72.179348    36.011286          120     18067.61    20658.807   -19439.811   -383.62383   -2792.8606    105.78565    72.179348    62.509149    36.011286    6428.8687   -311644.23 
     320    293.06769    162413.64    72.169782    72.169782    36.006514          120    15772.258    18353.537   -18185.289   -343.90261   -3279.5277    -47.21741    72.169782    62.500865    36.006514    5313.5019   -311663.94 
     330    292.15372    162365.46    72.162646    72.162646    36.002953          120      13453.6     15649.05   -24549.012   -560.48368   -3229.7375   -214.19278    72.162646    62.494685    36.002953     1517.879   -311697.94 
     340    288.74008    162325.64    72.156746    72.156746     36.00001          120    12977.133    14521.455   -35623.713   -318.29527    -3363.374   -766.90361    72.156746    62.489575     36.00001   -2708.3748   -311726.31 
     350     275.8094     162286.5    72.150946    72.150947    35.997116          120    13786.657    14722.463   -44455.362   -470.53684   -2840.8783   -901.74505    72.150946    62.484553    35.997116    -5315.414    -311735.1 
     360    259.29059    162243.94    72.144638    72.144638    35.993969          120    15364.828    16208.112   -46326.544   -753.74171   -2609.0085   -1430.1856    72.144638     62.47909    35.993969   -4917.8681   -311734.15 
     370    253.51546    162198.72    72.137935    72.137936    35.990625          120    17020.405    17896.625   -43047.945   -932.31214   -2574.8194   -1392.6015    72.137935    62.473285    35.990625   -2710.3049    -311752.3 
     380    252.16439    162154.57    72.131389    72.131389    35.987359          120    18757.201    19075.816   -36062.719   -827.62687   -2725.0419   -1190.4022    72.131389    62.467616    35.987359    590.09934   -311778.28 
     390    248.33236    162116.42    72.125732    72.125732    35.984536          120    18839.491    20054.873   -27702.513    -677.4046   -2623.2681    -1178.533    72.125732    62.462716    35.984536    3730.6168   -311799.22 
     400    240.02428    162088.35    72.121568    72.121568    35.982459          120    18720.993    19739.358   -22742.057   -679.36927   -2881.1133    -1070.291    72.121568    62.459111    35.982459    5239.4315   -311811.09 
     410    233.74626    162071.61    72.119085    72.119086     35.98122          120    18877.826     19666.32   -22954.921    -745.5353   -3491.9349   -981.49817    72.119085     62.45696     35.98122    5196.4083   -311825.23 
     420    229.43179    162064.87    72.118085    72.118086    35.980721          120    18438.315    19616.498   -26798.598   -809.56112   -3870.0007   -1060.3276    72.118085    62.456094    35.980721    3752.0715   -311842.28 
     430    223.59413    162064.75    72.118068    72.118069    35.980713          120    17753.447    18680.267   -32412.721   -967.75949   -3961.4045   -353.88038    72.118068     62.45608    35.980713    1340.3309   -311855.73 
     440    216.14455    162066.82    72.118374    72.118375    35.980866          120     17546.99    17641.365   -37568.488   -783.70025   -3812.0699    68.561771    72.118374    62.456345    35.980866   -793.37781   -311864.23 
     450     208.2417    162067.61    72.118493    72.118493    35.980925          120     18325.97     17744.91   -39690.574   -832.20944   -3139.1212   -118.19435    72.118493    62.456447    35.980925   -1206.5647   -311870.87 
     460    203.70428    162066.63    72.118347    72.118348    35.980852          120    19877.947    18649.329   -38288.555   -521.17047    -2402.676   -53.593906    72.118347    62.456321    35.980852    79.573895   -311883.48 
     470    201.77584    162065.98     72.11825    72.118251    35.980804          120    21349.173    18820.143   -33914.783   -202.89123   -2303.8965   -507.01318     72.11825    62.456238    35.980804    2084.8441   -311900.17 
     480    196.78351    162068.86    72.118677    72.118677    35.981017          120    21825.237    19536.048    -28445.11    261.46956   -2870.8402   -752.53989    72.118677    62.456607    35.981017    4305.3916    -311910.7 
     490    192.64738    162078.29    72.120076    72.120077    35.981715          120    21554.611    20336.032   -26004.413    358.58302   -3157.9257   -187.68775    72.120076    62.457819    35.981715    5295.4099   -311922.24 
     500    190.64534    162095.27    72.122594    72.122594    35.982971          120    20696.107    20706.121   -26616.089   -8.3497508   -3240.6716     47.00437    72.122594    62.459999    35.982971    4928.7131   -311937.34 
     510    185.46143    162118.51    72.126041    72.126042    35.984691          120    19217.043    20427.233   -29379.259   -301.09032   -3002.7089    64.186541    72.126041    62.462984    35.984691    3421.6722   -311945.77 
     520    179.96029    162145.08    72.129981    72.129982    35.986657          120    18328.482    19347.435   -33266.611   -473.20612   -2675.3481    347.03675    72.129981    62.466397    35.986657    1469.7686   -311952.73 
     530    175.11331    162171.66    72.133923    72.133924    35.988623          120    18105.338    18086.771   -36291.859   -595.68356   -2406.1313    457.04645    72.133923     62.46981    35.988623   -33.249935   -311960.17 
     540    170.08239    162195.88    72.137514    72.137514    35.990415          120      17785.3    17788.373   -37802.621   -466.52292   -2178.9849    523.97845    72.137514     62.47292    35.990415   -742.98264   -311966.32 
     550    167.48762     162216.9    72.140629     72.14063    35.991969          120    17783.587    18216.978   -36685.672   -459.79683   -1842.2906    312.18498    72.140629    62.475618    35.991969   -228.36894   -311976.34 
     560    162.94308     162235.8    72.143431    72.143432    35.993367          120    17884.504    18959.525   -33745.834   -235.02507   -1908.9483    475.51885    72.143431    62.478045    35.993367    1032.7315   -311982.55 
     570    159.26937    162254.75    72.146241    72.146241    35.994769          120    18301.034    19586.049    -31033.34     29.26582   -2134.5888    487.38848    72.146241    62.480478    35.994769     2284.581   -311990.14 
     580    156.41237    162275.71    72.149346    72.149347    35.996318          120    18066.095    19651.463   -29459.292    -6.456318   -2294.1901    464.54085    72.149346    62.483167    35.996318    2752.7553   -311998.55 
     590    153.06241    162299.28    72.152839     72.15284    35.998061          120    17648.748    19346.843    -29709.33    266.86875   -2493.0612   -5.7297291    72.152839    62.486192    35.998061    2428.7538   -312005.52 
     600    152.41507    162324.68    72.156603    72.156604    35.999939          120    17245.899     18383.47   -31837.225     288.7001   -2497.8472    145.42629    72.156603    62.489452    35.999939    1264.0478   -312017.12 
     610    150.00929    162350.02    72.160357    72.160358    36.001812          120    17068.118    17944.776   -34565.475    369.92394   -2275.8051    16.283264    72.160357    62.492703    36.001812    149.13965   -312025.14 
     620     146.4028    162373.56    72.163844    72.163845    36.003551          120    17468.541    17761.767   -36512.564    307.71148    -2226.284   -636.28381    72.163844    62.495723    36.003551   -427.41889   -312030.09 
     630    143.39821    162394.48    72.166943    72.166944    36.005098          120    17410.295    17728.516   -37301.305    68.764697   -2180.8198   -802.25551    72.166943    62.498407    36.005098   -720.83143   -312035.95 
     640    140.64001    162412.58    72.169625    72.169626    36.006436          120    17465.009    17611.245   -36416.549   -366.86966   -2016.7338   -638.01039    72.169625    62.500729    36.006436    -446.7652   -312042.53 
     650    137.93767     162428.6    72.171998    72.171998    36.007619          120    18385.464    18246.266   -34896.502   -725.16484   -2027.0725   -564.41985    72.171998    62.502784    36.007619    578.40937   -312048.06 
     660    134.67454    162444.35    72.174331    72.174332    36.008783          120    19248.141    19012.331   -32640.859   -771.04343   -1902.8507   -422.79489    72.174331    62.504805    36.008783    1873.2044   -312052.48 
     670    131.30422    162461.76    72.176909     72.17691     36.01007          120     18795.22    18511.148   -31207.406   -199.41317   -2323.6777   -325.65899    72.176909    62.507038     36.01007    2032.9872   -312056.37 
     680    130.84254    162481.04    72.179763    72.179764    36.011494          120    17913.072    17922.569   -31653.873   -73.449705    -2977.835   -22.731231    72.179763    62.509509    36.011494    1393.9227   -312065.39 
     690     128.7722    162501.02    72.182722    72.182723     36.01297          120    17152.568    17134.925   -33623.268   -184.00316   -2800.5993    9.2623708    72.182722    62.512072     36.01297    221.40811   -312070.78 
     700    126.55151    162519.78      72.1855    72.185501    36.014356          120     16536.28    16438.383   -36029.226   -229.18189   -3089.8111   -161.20388      72.1855    62.514478    36.014356   -1018.1876    -312075.8 
     710    123.40077    162535.54    72.187833    72.187834     36.01552          120     16610.35    16371.907   -37204.156   -350.26816   -2980.5661   -404.95248    72.187833    62.516498     36.01552   -1407.2996   -312078.93 
     720    121.28095    162547.82    72.189652    72.189652    36.016427          120    16688.783     16838.35   -37449.792    -436.0629   -2707.4129    -794.9484    72.189652    62.518073    36.016427   -1307.5529   -312083.28 
     730    119.45236    162557.04    72.191016    72.191017    36.017108          120    17018.758    17033.761    -36956.91   -588.66817    -2416.268   -945.65337    72.191016    62.519254    36.017108   -968.13053   -312087.82 
     740    118.26997    162563.96     72.19204    72.192041    36.017619          120    16871.992    16973.945   -35805.619   -312.09598   -2335.6571   -850.77146     72.19204    62.520142    36.017619   -653.22765   -312093.68 
     750    116.23851    162569.24    72.192823    72.192823    36.018009          120     16391.88    16764.497    -35047.05    61.474615   -2283.3967   -757.65235    72.192823    62.520819    36.018009   -630.22423   -312097.14 
     760    114.16919    162573.08    72.193391    72.193391    36.018293          120    16005.496    16693.393    -34785.54     283.2644   -2604.5474   -457.19976    72.193391    62.521311    36.018293    -695.5505   -312100.61 
     770    113.12926     162575.5    72.193748    72.193749    36.018471          120    16063.433    16833.578   -34945.436    231.12685   -2698.4214   -412.35288    72.193748    62.521621    36.018471    -682.8082   -312106.04 
     780    111.36049     162576.6    72.193912    72.193912    36.018552          120    16180.597    16679.441   -35012.802    64.001039   -2449.3253   -703.16668    72.193912    62.521762    36.018552   -717.58781    -312109.7 
     790    109.38168    162576.39    72.193881    72.193881    36.018537          120    16062.784    16201.711   -35307.999   -281.73916   -3115.1837   -721.75432    72.193881    62.521735    36.018537   -1014.5014   -312112.65 
     800    108.50812    162574.54    72.193606    72.193607      36.0184          120    16317.352    16180.644   -35979.516   -208.67936   -3510.2177   -858.88474    72.193606    62.521498      36.0184   -1160.5065    -312117.5 
     810    106.93538    162570.92    72.193071    72.193072    36.018133          120    16419.505    16648.482   -36299.361    -25.16347   -3408.1566   -892.51783    72.193071    62.521034    36.018133   -1077.1245   -312120.93 
     820    104.40829    162565.78     72.19231     72.19231    36.017753          120    16245.314    16995.363   -36191.759    195.70761   -3019.0362   -897.30613     72.19231    62.520375    36.017753   -983.69393   -312122.19 
     830    103.22757    162559.39    72.191364    72.191365    36.017282          120    15941.288    17348.278   -35483.096    274.56352   -2685.5929   -963.82225    72.191364    62.519556    36.017282   -731.17637    -312125.5 
     840    102.29649    162552.23    72.190304    72.190304    36.016752          120    16123.522    17389.205     -35105.6    101.43404   -2468.3858   -828.64611    72.190304    62.518638    36.016752   -530.95756   -312129.47 
     850    100.93063    162544.67    72.189185    72.189186    36.016194          120    16763.206    17020.255    -35013.52   -169.86697   -2437.0975   -840.12124    72.189185    62.517669    36.016194   -410.01952   -312132.45 
     860    99.268802    162536.91    72.188037    72.188037    36.015621          120    17109.666    16446.663   -35191.925    -271.2436   -2801.5323   -875.34641    72.188037    62.516674    36.015621   -545.19871   -312134.86 
     870    98.632325    162528.77    72.186831    72.186832     36.01502          120    16526.987     16465.02   -35283.254   -140.53826   -2977.8779   -1356.3836    72.186831     62.51563     36.01502   -763.74922   -312138.43 
     880    98.847209    162519.89    72.185516    72.185517    36.014364          120     15944.49    16546.135   -35819.872   -214.11286   -2946.7039   -1424.7753    72.185516    62.514491    36.014364   -1109.7489   -312143.71 
     890    96.986554    162509.79    72.184021    72.184022    36.013618          120    15806.961    16657.983    -36240.81   -323.62845   -2676.4812   -1064.6157    72.184021    62.513197    36.013618   -1258.6219   -312144.79 
     900    95.832041    162498.32    72.182323    72.182323     36.01277          120    15704.106    16689.631   -35811.859   -340.24778   -2560.2937   -1333.7261    72.182323    62.511726     36.01277    -1139.374   -312146.93 
     910      93.8403    162485.76    72.180463    72.180464    36.011843          120     16012.56    16936.589    -35091.33   -154.06295   -2358.1533   -852.85934    72.180463    62.510115    36.011843   -714.06024   -312147.31 
     920    93.995604     162472.9    72.178559    72.178559    36.010893          120      16595.5    17614.153   -34213.639   -82.865207   -2287.7923    -652.0973    72.178559    62.508466    36.010893   -1.3284013   -312151.55 
     930    92.942497    162460.85    72.176775    72.176775    36.010002          120    16938.139    18157.475   -33698.384   -232.33508    -2378.019   -707.19248    72.176775    62.506921    36.010002    465.74357   -312153.37 
     940    91.811316    162450.32    72.175214    72.175215    36.009224          120    16923.576    18007.709   -33317.787   -290.56238   -2434.6147   -1239.8463    72.175214     62.50557    36.009224    537.83271    -312155.1 
     950    91.228498    162441.32    72.173882    72.173883     36.00856          120    16645.068    18050.483   -33405.982   -95.491257   -2357.3017   -1455.8371    72.173882    62.504416     36.00856     429.8561   -312157.74 
     960    91.294164    162433.67    72.172749     72.17275    36.007994          120    16955.949    18530.996   -33688.142   -180.74491    -2433.301   -1232.8862    72.172749    62.503435    36.007994    599.60093   -312161.43 
     970     90.27744     162427.5    72.171835    72.171836    36.007538          120     17328.36    18909.943   -34111.263    9.2179329   -2741.5218   -1417.2427    72.171835    62.502643    36.007538    709.01358   -312162.06 
     980     89.38486    162422.87     72.17115     72.17115    36.007196          120    17274.983    18768.183   -34188.264   -39.893038   -2550.8216   -1607.1175     72.17115     62.50205    36.007196    618.30061   -312163.51 
     990    89.500866    162419.52    72.170654    72.170654    36.006949          120    17112.475    18392.396   -34508.427   -62.678299   -2422.8439   -1945.1088    72.170654     62.50162    36.006949    332.14776   -312166.68 
    1000    88.621749    162416.97    72.170276    72.170276     36.00676          120    17195.755    18506.764   -34622.811   -206.02828   -2242.5065   -1644.9889    72.170276    62.501293     36.00676    359.90286   -312167.55 
Loop time of 383.211 on 1 procs for 1000 steps with 14848 atoms

Performance: 0.225 ns/day, 106.447 hours/ns, 2.610 timesteps/s
100.0% CPU use with 1 MPI tasks x no OpenMP threads

MPI task timing breakdown:
Section |  min time  |  avg time  |  max time  |%varavg| %total
---------------------------------------------------------------
Pair    | 314.12     | 314.12     | 314.12     |   0.0 | 81.97
Bond    | 0.00056243 | 0.00056243 | 0.00056243 |   0.0 |  0.00
Kspace  | 14.406     | 14.406     | 14.406     |   0.0 |  3.76
Neigh   | 45.695     | 45.695     | 45.695     |   0.0 | 11.92
Comm    | 0.48173    | 0.48173    | 0.48173    |   0.0 |  0.13
Output  | 0.01378    | 0.01378    | 0.01378    |   0.0 |  0.00
Modify  | 8.3334     | 8.3334     | 8.3334     |   0.0 |  2.17
Other   |            | 0.1591     |            |       |  0.04

Nlocal:    14848 ave 14848 max 14848 min
Histogram: 1 0 0 0 0 0 0 0 0 0
Nghost:    46883 ave 46883 max 46883 min
Histogram: 1 0 0 0 0 0 0 0 0 0
Neighs:    1.01327e+07 ave 1.01327e+07 max 1.01327e+07 min
Histogram: 1 0 0 0 0 0 0 0 0 0

Total # of neighbors = 10132694
Ave neighs/atom = 682.428
Ave special neighs/atom = 0
Neighbor list builds = 136
Dangerous builds = 0
PPPM initialization ...
  using 12-bit tables for long-range coulomb (../kspace.cpp:321)
  G vector (1/distance) = 0.202685
  grid = 36 48 24
  stencil order = 5
  estimated absolute RMS force accuracy = 0.000992658
  estimated relative force accuracy = 6.89363e-05
  using double precision FFTs
  3d grid and FFT values/proc = 63017 41472
Setting up Verlet run ...
  Unit style    : metal
  Current step  : 0
  Time step     : 0.001
Per MPI rank memory allocation (min/avg/max) = 152.3 | 152.3 | 152.3 Mbytes
Step Temp Volume Cella Cellb Cellc CellGamma Pxx Pyy Pzz Pxy Pxz Pyz Lx Ly Lz Press PotEng 
       0    88.621749    162416.97    72.170276    72.170276     36.00676          120    17210.681    18521.555   -34613.838   -206.31832   -2242.4176   -1645.0839    72.170276    62.501293     36.00676    372.79961   -312167.35 
      10    88.492702    162415.26    72.170022    72.170023    36.006634          120    17538.612    18766.349   -33800.811   -279.30658   -2117.4014   -1224.6041    72.170022    62.501073    36.006634    834.71658   -312169.73 
      20    87.012635    162415.02    72.169986    72.169987    36.006616          120    17939.284    18935.566   -33382.386   -18.757404   -2231.8516   -1139.4357    72.169986    62.501042    36.006616    1164.1546   -312168.67 
      30    86.710716    162416.75    72.170243    72.170244    36.006744          120    18354.587     19290.59   -32963.071   -69.262827   -2209.3489   -952.99721    72.170243    62.501264    36.006744    1560.7019    -312169.8 
      40    86.422911    162420.89    72.170856    72.170856     36.00705          120    18250.835    19332.789   -33099.147    65.957415   -2353.0893   -829.05873    72.170856    62.501795     36.00705    1494.8254   -312170.97 
      50    86.418896    162427.22    72.171794    72.171794    36.007517          120    18186.012    19004.352   -33689.393    189.73028   -2566.5007   -1075.3946    72.171794    62.502607    36.007517    1166.9904   -312172.58 
      60    85.941859    162435.08    72.172958    72.172959    36.008098          120    18068.165    18528.539   -34492.759    111.85024   -2671.0432   -1120.5692    72.172958    62.503616    36.008098    701.31485   -312173.04 
      70    85.479639    162443.61    72.174221    72.174222    36.008728          120    17462.294    17971.888   -35030.128   -91.091937   -2600.9591   -1099.1023    72.174221    62.504709    36.008728    134.68475   -312173.68 
      80    85.585687    162451.91     72.17545     72.17545    36.009342          120    17429.062    17498.926   -34998.981   -108.47382   -2208.2006   -1222.2903     72.17545    62.505774    36.009342   -23.664128    -312175.3 
      90    85.392006    162459.71    72.176606    72.176606    36.009918          120    17736.178    17542.528   -34805.048    38.236205   -1858.6627   -1467.2277    72.176606    62.506775    36.009918    157.88607   -312176.17 
     100    85.796304    162467.34    72.177736    72.177736    36.010482          120    17945.817    17739.643   -34061.827    273.48533   -1901.7426   -1378.3053    72.177736    62.507753    36.010482    541.21125   -312177.83 
     110    86.231168    162475.42    72.178931    72.178932    36.011078          120    18132.827    17915.987   -33448.331    295.50501   -1852.9371   -1398.4115    72.178931    62.508789    36.011078    866.82734   -312179.29 
     120    86.012385    162484.42    72.180264    72.180265    36.011744          120    18093.474    18286.574   -33531.263     320.8576   -1834.4937    -1510.648    72.180264    62.509943    36.011744    949.59499   -312179.89 
     130    85.789733    162494.43    72.181747    72.181748    36.012483          120    17979.222    18640.046    -34139.66    355.22653    -2185.421   -1235.5515    72.181747    62.511227    36.012483    826.53622   -312180.16 
     140    85.915574    162505.24    72.183348    72.183348    36.013282          120    17890.466    18740.235   -34384.989    421.08039    -2426.444   -1470.4887    72.183348    62.512613    36.013282    748.57086   -312180.52 
     150    85.777102    162516.68    72.185041    72.185041    36.014127          120    18003.962    19001.555   -34646.312    254.43724   -2369.3723    -1495.621    72.185041     62.51408    36.014127    786.40154   -312180.21 
     160    85.794476    162528.78    72.186833    72.186833    36.015021          120    18229.498    19256.392   -34635.268    190.89118   -2237.2315   -1424.7396    72.186833    62.515632    36.015021    950.20734   -312180.27 
     170    86.301671    162541.72    72.188748    72.188748    36.015976          120    18333.104    19148.494   -35038.871    411.54442   -2278.0929   -1512.0023    72.188748     62.51729    36.015976     814.2422   -312180.77 
     180    86.519847    162555.24     72.19075     72.19075    36.016975          120    18248.191    18779.839     -35263.1    557.18239   -2140.6097   -1672.2453     72.19075    62.519024    36.016975    588.30986   -312180.72 
     190    86.081685    162569.01    72.192788    72.192789    36.017992          120    18220.284    18459.106   -34815.041    642.82432   -2306.6772   -1975.9822    72.192788    62.520789    36.017992    621.44991   -312179.21 
     200    85.932323    162583.04    72.194865    72.194865    36.019028          120    18195.399    18280.378   -34450.879    823.48976   -2394.1321   -2092.0661    72.194865    62.522587    36.019028    674.96604   -312178.48 
     210    86.499647    162597.38    72.196987    72.196988    36.020087          120    18221.516    18397.097   -34835.535    1024.7715   -2072.9889   -1979.4183    72.196987    62.524426    36.020087     594.3593   -312178.54 
     220    86.355447    162611.88    72.199133    72.199133    36.021157          120     17932.58    18300.949   -35104.887    1244.1314   -1871.7872   -1413.0574    72.199133    62.526284    36.021157    376.21412   -312177.14 
     230     87.29279    162626.18     72.20125     72.20125    36.022214          120    17677.359     18040.89   -35255.375    1359.9825   -2261.3257   -1262.3455     72.20125    62.528117    36.022214    154.29118   -312177.95 
     240    87.605038    162639.91    72.203282    72.203283    36.023227          120    17020.197    17967.428   -35536.644    1091.1026   -2475.9874   -1036.6859    72.203282    62.529877    36.023227   -183.00617   -312177.53 
     250    87.685851    162652.56    72.205154    72.205154    36.024161          120    16819.231    17703.253    -36123.74    698.61445   -2409.5684   -1104.1449    72.205154    62.531498    36.024161   -533.75186   -312176.72 
     260    87.960246    162663.66    72.206796    72.206796     36.02498          120    16989.033    17395.927   -36104.777    210.43721   -2308.3157   -1244.8916    72.206796     62.53292     36.02498   -573.27247   -312176.15 
     270    88.539571    162673.21    72.208209     72.20821    36.025686          120    17241.183    17490.404   -35903.536    2.1489819   -2248.9413   -1026.2053    72.208209    62.534144    36.025686   -390.64933   -312175.72 
     280    88.415309     162681.6     72.20945    72.209451    36.026305          120    17628.632    17551.759   -35575.532    135.35435   -2300.8291   -1175.6093     72.20945    62.535219    36.026305   -131.71354   -312174.21 
     290    89.164689    162689.29    72.210588    72.210589    36.026872          120    17659.385    17754.735   -35286.807   -1.1801313   -2211.1763    -1501.991    72.210588    62.536204    36.026872    42.437351   -312174.06 
     300    90.310865    162696.61    72.211671    72.211672    36.027413          120    17392.365    17822.171   -34980.536   -179.64445   -2194.3193   -1435.7519    72.211671    62.537142    36.027413    77.999846   -312174.94 
     310     89.38599    162703.61    72.212706    72.212707    36.027929          120    16924.846    17793.482   -35246.914   -420.86063   -2318.2274    -1130.927    72.212706    62.538039    36.027929   -176.19561   -312171.61 
     320    90.070523    162709.92    72.213641    72.213641    36.028395          120    16983.077    17461.392   -35759.726   -607.49653   -2248.5808    -720.1633    72.213641    62.538848    36.028395   -438.41926   -312171.76 
     330    90.968117    162715.15    72.214413    72.214414    36.028781          120    16739.432    17317.064   -36291.965   -468.19661   -2271.4984   -443.44856    72.214413    62.539517    36.028781    -745.1565   -312171.72 
     340    91.512595    162718.87    72.214964    72.214964    36.029056          120    16658.283    17064.477   -36200.106    -92.65736   -2227.2797   -387.62705    72.214964    62.539994    36.029056   -825.78213   -312171.34 
     350    91.163192    162721.03    72.215284    72.215285    36.029215          120    16606.924    17140.502   -35844.323    14.877209   -1964.4456   -260.90529    72.215284    62.540271    36.029215   -698.96561   -312169.48 
     360     92.91116    162721.88     72.21541    72.215411    36.029278          120    16568.603    17309.306   -35732.597   -78.249287   -2157.9559   -390.06217     72.21541     62.54038    36.029278   -618.22946   -312171.72 
     370    92.269194    162721.69    72.215382    72.215383    36.029264          120    16936.792     17646.45   -35662.568    144.53193   -2314.8688    -672.4361    72.215382    62.540356    36.029264   -359.77548   -312169.54 
     380    92.105412    162720.88    72.215261    72.215262    36.029204          120    16982.411    17949.433   -35672.796    219.44955   -2185.1489   -948.53544    72.215261    62.540251    36.029204    -246.9838   -312168.23 
     390    92.633644    162719.71    72.215089    72.215089    36.029118          120    17414.964     17649.48   -35326.343    121.92383   -1975.2612   -1228.3626    72.215089    62.540102    36.029118   -87.299425   -312168.43 
     400    92.837618    162718.37     72.21489     72.21489    36.029019          120     17166.98    17644.742   -36137.749    348.68607   -2030.7171   -1027.8951     72.21489     62.53993    36.029019   -442.00889    -312167.5 
     410    93.522454    162716.37    72.214595    72.214596    36.028872          120    17120.552    17594.473    -36779.35    350.39399   -2025.1253   -865.25392    72.214595    62.539675    36.028872   -688.10856   -312168.53 
     420    93.810832    162713.37     72.21415    72.214151     36.02865          120     17248.83    17332.287   -36557.593    348.87221   -1796.8542   -761.15398     72.21415    62.539289     36.02865   -658.82549   -312167.92 
     430    94.498132    162709.44     72.21357     72.21357     36.02836          120     17298.69    17800.924   -36164.806     284.6504   -2008.8623   -473.08292     72.21357    62.538787     36.02836    -355.0641   -312168.96 
     440    94.565139    162705.14    72.212933    72.212933    36.028042          120    17520.752    18346.747   -35815.767    227.23374   -2106.8898   -318.01902    72.212933    62.538235    36.028042    17.243954   -312168.85 
     450    94.526126    162701.05    72.212328    72.212328     36.02774          120    18130.809    18085.638   -35636.813    184.68572   -2550.4941   -339.63561    72.212328    62.537711     36.02774    193.21133   -312168.69 
     460    94.456346     162697.5    72.211802    72.211803    36.027478          120    18212.721    17996.178   -35349.539    154.45225    -2579.205   -398.46136    72.211802    62.537256    36.027478    286.45313   -312169.15 
     470    93.627174    162694.52    72.211362    72.211363    36.027259          120    17705.247    17734.429   -35761.132    147.78902   -2564.6031   -461.17509    72.211362    62.536875    36.027259   -107.15206    -312168.1 
     480    93.479937    162691.55    72.210922    72.210923    36.027039          120    17422.983    17450.019   -36103.052   -74.410246   -2599.4743   -715.79739    72.210922    62.536494    36.027039    -410.0165   -312168.18 
     490    93.981169    162688.07    72.210407    72.210408    36.026782          120    17152.638    17551.225   -36050.835   -281.88562   -2316.1546   -1258.6654    72.210407    62.536048    36.026782   -448.99064      -312170 
     500    92.952395       162684    72.209805    72.209805    36.026482          120    16963.768    17491.978   -35946.461   -490.74932   -2405.7565   -1015.3407    72.209805    62.535526    36.026482   -496.90489   -312168.76 
     510    93.535877    162679.32    72.209114    72.209114    36.026137          120    17049.598    17718.334     -35714.5   -357.23702   -2245.1989   -634.76969    72.209114    62.534927    36.026137   -315.52288   -312170.77 
     520    94.059202    162674.38    72.208382    72.208383    36.025772          120    17626.077    17867.836   -35505.261   -208.46549   -2270.9116   -583.30669    72.208382    62.534294    36.025772   -3.7824868   -312172.86 
     530     93.15831    162669.65    72.207682    72.207682    36.025422          120    17866.488    18203.703   -35664.527   -120.88206   -2410.1163   -907.46306    72.207682    62.533687    36.025422     135.2211   -312172.46 
     540    93.042506    162665.39    72.207052    72.207052    36.025108          120    17747.399    18178.861   -35004.145   -102.22031   -2574.4799   -881.34327    72.207052    62.533142    36.025108    307.37173   -312173.16 
     550    92.737285    162661.79    72.206519     72.20652    36.024843          120    17433.802    17882.496   -34910.268   -14.568814   -2246.1391   -938.54595    72.206519    62.532681    36.024843    135.34353    -312173.8 
     560    92.290059    162658.58    72.206044    72.206044    36.024605          120     17107.57    17520.281   -35113.154    221.62275   -1754.1485   -1156.9427    72.206044    62.532269    36.024605   -161.76774   -312174.44 
     570    91.321113    162655.31    72.205561    72.205561    36.024364          120    17123.331    17627.914   -35251.852    336.52286   -1935.2495   -921.66125    72.205561     62.53185    36.024364   -166.86934   -312174.05 
     580    90.642742    162651.89    72.205054    72.205054    36.024111          120    16718.986    17872.835   -35468.796    533.43729   -2009.4189   -1068.2895    72.205054    62.531411    36.024111   -292.32524   -312174.44 
     590    91.534069    162648.19    72.204506    72.204507    36.023838          120     16675.45    18225.131   -35296.793    850.00959   -1806.7931   -979.51937    72.204506    62.530937    36.023838   -132.07074   -312177.35 
     600    91.230482    162644.42    72.203949    72.203949     36.02356          120    16945.293    18554.404    -35699.16    779.54816   -1980.7199   -731.29947    72.203949    62.530454     36.02356   -66.487781   -312178.34 
     610    90.667895    162640.74    72.203404    72.203405    36.023288          120    17043.165    18664.212    -35637.59    516.84773   -1906.5109   -900.23556    72.203404    62.529983    36.023288     23.26242   -312179.06 
     620    90.085146    162637.27     72.20289    72.202891    36.023032          120    17053.827    18751.628    -35458.71    293.75329   -2056.6797   -1335.7329     72.20289    62.529538    36.023032     115.5816   -312179.76 
     630    89.680504     162634.2    72.202436    72.202437    36.022805          120    17517.594    18925.045   -35083.904    287.30326   -2520.9655   -1909.5754    72.202436    62.529145    36.022805    452.91179   -312180.34 
     640    89.102655       162632    72.202112    72.202112    36.022643          120    17984.184    19156.874   -35268.666    371.70141   -2003.3427   -1869.9296    72.202112    62.528864    36.022643    624.13077   -312180.72 
     650    88.779221    162630.91     72.20195     72.20195    36.022563          120    17861.891    19050.972   -35458.043    208.65214    -1798.027   -1674.3562     72.20195    62.528723    36.022563    484.94017   -312181.49 
     660    88.684742    162630.71     72.20192     72.20192    36.022548          120    17534.439    19100.582   -35098.753   -87.369926   -1845.5918   -1565.4874     72.20192    62.528697    36.022548     512.0891   -312182.84 
     670    88.714191     162631.4    72.202023    72.202023    36.022599          120    17680.246    18808.126   -34501.681   -278.76148   -2280.2741   -1592.0764    72.202023    62.528786    36.022599    662.23046   -312183.91 
     680    88.230168    162633.14     72.20228    72.202281    36.022728          120    17636.406    18806.564   -34389.732    88.211023   -2648.4002   -1621.0382     72.20228    62.529009    36.022728    684.41284   -312184.38 
     690    88.538582    162635.97    72.202699      72.2027    36.022936          120    17658.043    19034.116     -34275.8    116.12117   -2280.6241   -1620.7897    72.202699    62.529372    36.022936    805.45315   -312185.92 
     700    87.285179    162639.99    72.203293    72.203293    36.023233          120    17467.655    19061.706   -34376.062    48.103983   -2134.9082   -1535.3596    72.203293    62.529887    36.023233    717.76625   -312184.65 
     710    86.885353       162645    72.204035    72.204035    36.023603          120    17460.332    19195.836   -34942.851    316.12339   -2075.9439   -1393.7494    72.204035    62.530529    36.023603    571.10569   -312184.92 
     720    86.713608    162650.77    72.204889    72.204889    36.024029          120    17677.392    19131.935   -34939.265    395.07839   -2074.0699   -1310.0111    72.204889    62.531268    36.024029    623.35428   -312185.34 
     730    86.701755    162657.28    72.205852    72.205853     36.02451          120    17636.371    18968.182    -35069.91    266.43211   -2295.2606   -1204.3172    72.205852    62.532103     36.02451    511.54777   -312186.43 
     740    87.411879    162664.37    72.206902    72.206902    36.025033          120    17638.866    19013.726   -35077.968   -107.96041   -2357.0119   -1083.9476    72.206902    62.533012    36.025033    524.87453   -312188.06 
     750    86.659001    162671.98    72.208028    72.208028    36.025595          120    17583.812    18871.209   -35364.022   -158.28046   -2280.5584   -901.89691    72.208028    62.533987    36.025595    363.66624   -312187.27 
     760    86.869278    162679.83    72.209189    72.209189    36.026174          120    17295.053    18697.186   -35719.891    243.96788   -2267.3079   -862.61333    72.209189    62.534992    36.026174    90.782688    -312187.9 
     770    86.009226    162687.49    72.210321    72.210322    36.026739          120    16886.321    18732.616   -35731.563    499.93839   -2177.8909   -980.86977    72.210321    62.535973    36.026739   -37.542203   -312186.54 
     780    85.623408     162694.7    72.211388    72.211389    36.027272          120    16557.245    18633.808   -35939.802    418.62384   -2645.3791   -1071.6467    72.211388    62.536897    36.027272   -249.58313   -312186.16 
     790     85.36015    162701.19    72.212349     72.21235    36.027751          120    16303.949    18796.649   -35946.481    416.04508   -2685.4294    -1131.307    72.212349     62.53773    36.027751   -281.96102   -312185.61 
     800    85.860781     162706.9    72.213193    72.213193    36.028172          120    15871.461    18905.396   -36085.275    351.30369   -2226.2687   -1044.2413    72.213193     62.53846    36.028172   -436.13938   -312186.46 
     810    86.048813    162711.63    72.213893    72.213893    36.028521          120    16044.551     18670.06     -35983.9    470.61495   -1883.4684   -1302.3291    72.213893    62.539066    36.028521   -423.09625   -312186.33 
     820    87.114759    162715.48    72.214463    72.214464    36.028806          120    16385.237    19055.073   -35756.371    795.78838   -1955.2631   -1191.9965    72.214463     62.53956    36.028806   -105.35336   -312188.01 
     830    87.767449    162718.97    72.214978    72.214979    36.029063          120    16891.802      18928.4   -35562.203    764.74458   -2059.9111   -902.90963    72.214978    62.540007    36.029063    85.999599   -312188.53 
     840     87.49053    162722.39    72.215485    72.215485    36.029315          120    16997.744    18505.605   -35713.871    712.72004    -2072.714   -597.00991    72.215485    62.540445    36.029315   -70.173729   -312187.51 
     850    87.101422    162725.43    72.215934    72.215935     36.02954          120    16386.079     17653.23   -36423.678    640.50164   -2287.5921   -511.57572    72.215934    62.540834     36.02954   -794.78981   -312186.27 
     860    87.063736    162727.05    72.216175    72.216175     36.02966          120     16064.59    17337.232   -36951.422    604.32609   -2488.4837   -605.01796    72.216175    62.541042     36.02966   -1183.1999   -312185.52 
     870    87.582926    162726.62     72.21611    72.216111    36.029628          120    15856.561    17517.307   -37372.382    759.42858   -2917.8938   -687.57264     72.21611    62.540987    36.029628    -1332.838   -312185.45 
     880    87.809769    162724.06    72.215732    72.215732    36.029439          120    16173.154    17970.171   -36601.365    906.11351   -2413.7983   -421.07259    72.215732    62.540659    36.029439   -819.34651   -312184.74 
     890    88.308121    162720.23    72.215166    72.215167    36.029157          120    16781.764    18122.367   -35775.625    731.88556   -1980.6255   -326.44668    72.215166    62.540169    36.029157   -290.49808   -312184.37 
     900    89.007353    162715.99    72.214538    72.214539    36.028843          120    16703.354    17971.576   -35940.965    575.41309   -2157.4856   -942.37503    72.214538    62.539625    36.028843   -422.01182   -312184.67 
     910    89.081865    162711.21    72.213832    72.213832    36.028491          120    16199.743    18036.872   -36210.459    496.11428   -1929.3391   -1033.1805    72.213832    62.539013    36.028491   -657.94774   -312183.43 
     920    90.250596    162705.59       72.213       72.213    36.028076          120    15944.806    18569.379   -36172.714    251.71427   -1652.2202   -912.42939       72.213    62.538293    36.028076   -552.84319   -312184.17 
     930    90.558525    162699.32    72.212072    72.212072    36.027613          120    16165.727    19061.922   -35926.048    466.94545   -1766.0598   -846.27959    72.212072    62.537489    36.027613   -232.79983   -312183.88 
     940    90.798768    162692.92    72.211125    72.211126     36.02714          120    16660.739    19323.121   -35849.506    710.73591    -2034.478   -1213.2781    72.211125     62.53667     36.02714    44.784886   -312183.32 
     950    91.138782    162686.89    72.210233    72.210233    36.026695          120    17291.966    19619.982   -35833.288    902.47492   -2315.6247   -1490.6069    72.210233    62.535896    36.026695    359.55307   -312182.64 
     960    91.342814     162681.7    72.209465    72.209465    36.026312          120     17616.29    19568.316   -35653.594    870.08575   -2445.1342   -1498.3615    72.209465    62.535231    36.026312    510.33721   -312181.99 
     970     90.63523    162677.55    72.208851    72.208851    36.026006          120    17550.861    19205.303     -35675.6    538.46837   -2191.6593   -1309.6681    72.208851      62.5347    36.026006    360.18816   -312179.32 
     980    91.422566    162674.18    72.208353    72.208354    36.025757          120    17250.489    19380.382   -35937.136     571.1117   -1998.3321   -1010.3002    72.208353    62.534269    36.025757     231.2448    -312179.7 
     990    91.807266    162671.41    72.207943    72.207944    36.025553          120    17172.831    19872.847   -35842.462    314.49278   -1876.4756   -724.67454    72.207943    62.533914    36.025553    401.07204   -312179.62 
    1000    92.788555    162669.42    72.207648    72.207648    36.025405          120    17087.592    19783.463   -35568.944    570.00712    -2334.146   -666.02569    72.207648    62.533658    36.025405    434.03681   -312180.78 
    1010    92.676611    162668.25    72.207475    72.207475    36.025319          120    17371.248    19471.849   -35352.977    778.61023   -2387.8798   -982.11544    72.207475    62.533508    36.025319    496.70672      -312180 
    1020    92.502021    162667.92    72.207426    72.207427    36.025295          120     17317.12    19044.695   -35448.462    637.30312   -2149.5767   -1031.3969    72.207426    62.533466    36.025295    304.45078   -312178.81 
    1030    92.499433    162668.09    72.207452    72.207453    36.025308          120     17180.72    18532.795   -35818.513    553.08555   -2292.1842   -919.84094    72.207452    62.533488    36.025308   -34.999261   -312178.41 
    1040    93.254797    162668.22    72.207471    72.207472    36.025318          120    16927.569    18402.017   -35996.351    467.93029   -2445.9895   -1410.8042    72.207471    62.533505    36.025318   -222.25514   -312179.14 
    1050     93.48268    162668.03    72.207442    72.207443    36.025303          120    16702.893    18774.864   -35804.373    388.25807   -2192.2787   -1443.3018    72.207442     62.53348    36.025303   -108.87203   -312178.65 
    1060     93.47109    162667.66    72.207387    72.207388    36.025276          120    16592.167    19193.323   -35331.612    190.21581    -1728.293   -1594.9512    72.207387    62.533432    36.025276    151.29265   -312178.36 
    1070    93.915524    162667.61    72.207381    72.207381    36.025272          120    17197.885    19840.749   -34838.523    480.23252   -1753.5714   -1828.2563    72.207381    62.533427    36.025272    733.37031   -312178.94 
    1080    93.297699    162668.75    72.207549    72.207549    36.025356          120     17558.89    20091.554    -34749.93    715.07922   -1855.7178   -1560.4976    72.207549    62.533572    36.025356    966.83792   -312177.67 
    1090    93.415151    162671.36    72.207935    72.207936    36.025549          120    17520.858    19489.802   -35284.514    435.03559   -2200.9469   -1340.3685    72.207935    62.533907    36.025549    575.38229   -312178.22 
    1100     93.17148    162674.82    72.208447    72.208448    36.025804          120    17450.075    18884.571   -35933.611     430.9685   -2379.6603   -970.46982    72.208447     62.53435    36.025804    133.67852   -312178.34 
    1110    93.789565     162678.4    72.208976    72.208977    36.026068          120    16836.604    19237.782   -36309.707    603.51331   -2571.0199    -642.6733    72.208976    62.534808    36.026068   -78.440226   -312180.12 
    1120    92.911126    162681.77    72.209475    72.209476    36.026317          120    16770.768    19509.315   -35840.534    478.15013   -2751.1813   -696.37557    72.209475    62.535241    36.026317    146.51657   -312178.83 
    1130    93.402327    162685.26    72.209992    72.209993    36.026575          120    17142.871    19337.541   -34958.126    790.06569   -2708.6812   -754.83042    72.209992    62.535688    36.026575    507.42875    -312180.6 
    1140    93.546435    162689.46    72.210614    72.210614    36.026885          120    17514.625    19272.997   -34274.078    969.76228   -2480.8796   -1070.9161    72.210614    62.536227    36.026885    837.84799   -312181.67 
    1150    92.215537    162694.84     72.21141     72.21141    36.027282          120    17785.633    19117.348    -34498.32    918.59725   -2080.5588   -1230.0747     72.21141    62.536916    36.027282    801.55367   -312179.88 
    1160     92.19681    162701.32    72.212368    72.212368     36.02776          120    17607.038    19149.579   -35087.664     864.6194   -2013.0015   -1221.9426    72.212368    62.537746     36.02776     556.3175   -312180.56 
    1170    92.083932    162708.43    72.213421    72.213421    36.028286          120    17126.473     19204.42   -35771.674    952.47422   -1961.2768   -1380.3905    72.213421    62.538657    36.028286     186.4065   -312181.43 
    1180    91.494785    162715.61    72.214482    72.214483    36.028815          120     16871.49    19250.133   -35832.592    904.88118   -1984.3773   -1309.7234    72.214482    62.539577    36.028815    96.343798   -312181.85 
    1190    91.215379    162722.66    72.215525    72.215526    36.029336          120    16735.429    19323.812   -35695.876    801.85023   -2134.9664   -881.54392    72.215525     62.54048    36.029336    121.12165   -312182.36 
    1200    90.783405    162729.62    72.216554    72.216555    36.029849          120    16810.535    19333.182   -35850.168    1126.4803      -2441.8   -673.11139    72.216554    62.541371    36.029849     97.84983   -312183.16 
    1210    90.752487    162736.45    72.217565    72.217565    36.030353          120    16648.654    19225.994   -35734.855    1196.3815   -2640.5244   -786.93493    72.217565    62.542246    36.030353    46.597609   -312184.42 
    1220    90.217784    162743.09    72.218547    72.218547    36.030843          120      16590.5    19049.621   -35499.462    1125.6948   -2604.7356   -762.05759    72.218547    62.543097    36.030843     46.88643   -312184.41 
    1230    90.662223    162749.53    72.219499      72.2195    36.031318          120    16341.757    19162.431   -35494.468    1289.9498   -2674.6679   -1013.9186    72.219499    62.543921    36.031318    3.2402237    -312186.8 
    1240    90.766143    162755.68     72.22041    72.220411    36.031773          120     16236.34    19273.861   -36046.407    1010.3121   -2466.2169   -1271.2622     72.22041     62.54471    36.031773   -178.73544   -312188.03 
    1250    90.130813    162761.31    72.221243    72.221243    36.032188          120    16384.482     19056.26   -36285.857    1079.0261   -2454.5167   -1388.0705    72.221243    62.545432    36.032188   -281.70505   -312188.25 
    1260    89.519985    162766.19    72.221964    72.221965    36.032548          120    16138.715    18712.326    -36786.94    1110.3199    -2488.397   -1352.1226    72.221964    62.546057    36.032548   -645.29967   -312188.03 
    1270    89.176577     162769.8    72.222498    72.222499    36.032815          120    16260.927    18334.358   -37271.954    854.53445   -2603.5494   -1333.2309    72.222498    62.546519    36.032815   -892.22288   -312188.26 
    1280    88.629251    162771.75    72.222786    72.222786    36.032958          120    16328.808    17730.945   -37582.517    687.17395   -2699.0262   -1172.0746    72.222786    62.546768    36.032958   -1174.2548   -312188.38 
    1290    88.785191    162771.63    72.222768    72.222768    36.032949          120     16094.62    17169.621   -37527.887    519.99651   -2539.0136   -893.59091    72.222768    62.546752    36.032949   -1421.2156   -312190.07 
    1300    87.860154    162769.21    72.222411    72.222412    36.032771          120    15902.617    17726.253   -36808.238    592.62565   -2307.0555   -686.78192    72.222411    62.546443    36.032771   -1059.7893   -312189.46 
    1310    86.814928    162765.11    72.221804    72.221805    36.032468          120     16316.26    18456.485   -36489.326     630.0592   -2569.5988   -744.21149    72.221804    62.545918    36.032468   -572.19362   -312188.72 
    1320    87.247691    162760.25    72.221085    72.221085    36.032109          120    17036.388    18928.384   -35665.054    493.46733   -2526.9572   -675.97804    72.221085    62.545295    36.032109    99.905855   -312190.47 
    1330    87.676588    162755.66    72.220407    72.220407    36.031771          120    17434.304     18740.87   -35547.928    541.76935   -2458.9271   -688.65842    72.220407    62.544708    36.031771    209.08204    -312191.8 
    1340    87.730511    162751.54    72.219797    72.219797    36.031467          120    17142.253    18790.786   -36320.349    744.92398   -2405.8271   -898.55742    72.219797    62.544179    36.031467   -129.10339   -312192.41 
    1350    87.164669     162747.4    72.219185    72.219186    36.031162          120    17145.554    19051.465   -36831.803    595.53958   -2120.0308   -769.77761    72.219185    62.543649    36.031162   -211.59451   -312192.25 
    1360    86.853071    162743.09    72.218547    72.218547    36.030843          120    17081.643    19217.845   -36825.657     629.3999   -2104.6959   -971.01177    72.218547    62.543097    36.030843   -175.38976   -312192.17 
    1370    86.573076    162738.67    72.217893    72.217893    36.030517          120    16810.586    19332.151   -36317.307    775.40104   -2191.5604    -1144.004    72.217893     62.54253    36.030517   -58.189853   -312191.76 
    1380    86.694998    162734.29    72.217245    72.217246    36.030194          120    16530.729      19128.2   -36056.447    814.35327   -2514.0672   -1340.4936    72.217245    62.541969    36.030194   -132.50613   -312191.92 
    1390    87.509811     162729.9    72.216596    72.216596     36.02987          120    16875.201    19072.424   -35744.074    983.20052    -2414.617   -1481.6901    72.216596    62.541407     36.02987    67.850468   -312193.64 
    1400    87.773528    162725.82    72.215993    72.215993    36.029569          120    17627.016    19210.303   -35376.544    1053.7302   -2389.7167   -1607.9462    72.215993    62.540885    36.029569    486.92494    -312194.8 
    1410    87.756825    162722.66    72.215525    72.215526    36.029336          120    17503.986    19372.079   -35313.276    1281.5289   -2467.1233   -1623.5758    72.215525     62.54048    36.029336     520.9296   -312194.49 
    1420    87.884224    162720.47    72.215202    72.215202    36.029174          120     17182.03    19399.637   -35497.641    1328.8137   -2889.0256   -1484.4011    72.215202      62.5402    36.029174    361.34195   -312195.06 
    1430    87.303627    162718.96    72.214978    72.214979    36.029063          120    16993.823    19121.864   -35893.809    1271.4102   -2936.4958   -1091.2898    72.214978    62.540006    36.029063    73.959243   -312194.04 
    1440    87.269623    162717.58    72.214774    72.214775    36.028961          120    17102.569    18405.011   -36743.081    987.25597   -2901.2211   -1052.5494    72.214774    62.539829    36.028961   -411.83364   -312193.55 
    1450    87.305254    162715.67    72.214491    72.214491    36.028819          120    17495.886    18284.774   -36520.783    853.25992   -2801.5313   -875.20302    72.214491    62.539584    36.028819    -246.7077   -312193.08 
    1460     87.92824    162713.45    72.214162    72.214163    36.028656          120    17580.795    18647.829    -35511.12    754.69291   -2842.1192   -729.52413    72.214162      62.5393    36.028656    239.16831   -312193.69 
    1470    88.790805    162711.72    72.213907    72.213907    36.028528          120    17552.679    19134.378   -34629.734    607.57902   -2744.9311   -1316.5044    72.213907    62.539079    36.028528    685.77436   -312194.87 
    1480    88.362658    162711.16    72.213823    72.213824    36.028486          120    17533.628    19245.262   -34533.517    429.41424   -2830.4298   -1293.0872    72.213823    62.539006    36.028486    748.45736   -312193.14 
    1490    89.450617    162711.83    72.213923    72.213924    36.028537          120    17324.058    19060.355   -34699.932    315.58051    -2687.243   -1057.0392    72.213923    62.539093    36.028537    561.49368   -312194.81 
    1500    88.745677    162713.43     72.21416     72.21416    36.028654          120     17350.59    18545.758   -35045.429    46.769187   -2616.7245   -1140.4204     72.21416    62.539297    36.028654    283.63989   -312192.56 
    1510    89.066382    162715.41    72.214453    72.214453    36.028801          120    17343.995    18019.431   -35645.689     91.89039    -2898.858   -1154.9947    72.214453    62.539551    36.028801   -94.087741   -312192.36 
    1520    88.861529    162717.21    72.214718    72.214719    36.028933          120    17088.018    18178.436   -35843.241     364.5148   -2848.8355   -892.77084    72.214718    62.539781    36.028933    -192.2622   -312190.97 
    1530    89.149346    162718.59    72.214924    72.214924    36.029036          120    17081.706     18227.52   -36418.918    644.85065   -2749.0467   -1058.8554    72.214924    62.539959    36.029036   -369.89744   -312190.51 
    1540    89.683749    162719.29    72.215026    72.215027    36.029087          120    16851.226     18017.19   -36650.305     860.1862   -3130.8307   -1240.5302    72.215026    62.540048    36.029087   -593.96324   -312190.58 
    1550    89.490247    162719.01    72.214986    72.214986    36.029066          120    16538.896    18436.626   -36262.865    1125.6114   -2557.5148   -984.64506    72.214986    62.540013    36.029066   -429.11455    -312189.1 
    1560    90.393693    162718.05    72.214842    72.214843    36.028995          120    16723.523    18778.767   -35866.188    1172.6427   -2404.6897   -690.15541    72.214842    62.539889    36.028995   -121.29918   -312189.98 
    1570    90.959301     162716.9    72.214674    72.214674    36.028911          120    17153.371     18709.55   -35519.781    1042.4954   -3008.1171   -963.00213    72.214674    62.539743    36.028911    114.37992    -312190.3 
    1580    90.097088    162716.01    72.214541    72.214542    36.028845          120    17310.906    18708.467   -35060.662    1075.2121   -3261.0425   -1313.7396    72.214541    62.539628    36.028845    319.57016   -312188.06 
    1590    90.394988    162715.67    72.214491    72.214492     36.02882          120     17580.83    18711.676   -34967.317    843.56461   -2966.1463   -1519.7722    72.214491    62.539584     36.02882    441.72967   -312187.59 
    1600    91.168905    162716.07     72.21455    72.214551    36.028849          120    17954.804    19184.642   -35629.859     1128.837   -2821.2758   -1606.1773     72.21455    62.539636    36.028849    503.19525   -312188.56 
    1610    91.318861    162717.28    72.214729    72.214729    36.028938          120    17497.719    19504.545   -35816.263    1298.5903   -2385.8137   -1566.5636    72.214729     62.53979    36.028938    395.33374   -312188.11 
    1620    90.612508     162719.1    72.214998    72.214999    36.029073          120    17374.734    19265.763   -35953.281    1388.3876    -2114.105   -1347.2188    72.214998    62.540024    36.029073    229.07197   -312186.11 
    1630    91.970702    162721.23    72.215313    72.215314     36.02923          120    17393.013    18848.632   -36014.473    1160.7621   -2110.3061   -1076.9976    72.215313    62.540296     36.02923    75.724019   -312187.55 
    1640    92.080611    162723.48    72.215647    72.215648    36.029396          120     17739.51    18811.161   -35300.464    877.80037   -2019.9265   -958.09822    72.215647    62.540585    36.029396    416.73567   -312187.24 
    1650    91.929916    162726.33    72.216068    72.216069    36.029607          120    17733.713    18909.819   -34881.994    585.09492   -2199.1961   -912.81363    72.216068     62.54095    36.029607    587.17899    -312186.6 
    1660    91.808162    162729.99    72.216609     72.21661    36.029877          120    17463.582    18582.937   -35092.281    392.29392   -2208.9448   -1110.8546    72.216609    62.541419    36.029877    318.07934   -312185.89 
    1670    92.417984    162734.07    72.217213    72.217213    36.030178          120    17192.815    18533.126   -35206.944    622.59314    -2338.487   -1688.5969    72.217213    62.541941    36.030178    172.99898   -312186.43 
    1680    93.023736    162738.29    72.217837    72.217838    36.030489          120    17120.341    18377.257   -35226.656    661.42515   -1937.7467   -2014.5352    72.217837    62.542483    36.030489    90.313868   -312187.55 
    1690    93.189111    162742.52    72.218463    72.218463    36.030801          120    17122.846    18481.964   -35354.651    852.10352   -1877.5671   -1769.8751    72.218463    62.543024    36.030801    83.386281   -312187.64 
    1700    93.057664    162746.76     72.21909     72.21909    36.031114          120    17360.097    18559.405   -35366.932    865.93589   -1926.7329   -1506.1323     72.21909    62.543567    36.031114     184.1899   -312187.14 
    1710    92.309069     162751.1    72.219731    72.219732    36.031434          120    17031.596    18429.159   -35750.447    784.39153   -1872.8987   -1374.3898    72.219731    62.544123    36.031434   -96.564089   -312185.67 
    1720    92.291323    162755.05    72.220316    72.220317    36.031726          120    16717.497     18244.68   -36879.417    629.41098   -1878.1516   -953.23559    72.220316    62.544629    36.031726   -639.07992   -312185.94 
    1730    92.249188    162757.86    72.220732    72.220732    36.031933          120    16446.226    18341.278   -36802.418     571.0607   -2073.9197   -924.93445    72.220732    62.544989    36.031933   -671.63811   -312186.26 
    1740    91.978371    162759.44    72.220966    72.220966     36.03205          120    16223.457    18554.695   -36283.753    684.54899   -2389.3076    -883.7471    72.220966    62.545192     36.03205   -501.86683    -312185.9 
    1750    92.368092    162760.16    72.221071    72.221072    36.032103          120    16660.217    18555.345   -35622.439    1015.2706   -2356.6486   -681.86885    72.221071    62.545283    36.032103   -135.62565   -312187.34 
    1760    92.500019    162760.58    72.221134    72.221134    36.032134          120    16659.208    18570.695   -35299.924    1284.0097   -2787.7104   -947.69584    72.221134    62.545337    36.032134   -23.340296   -312188.05 
    1770    91.869567    162760.91    72.221183    72.221183    36.032158          120    16700.127    18810.616   -35776.866    1615.0101   -2813.3364   -1098.7791    72.221183     62.54538    36.032158   -88.707759   -312187.27 
    1780    91.503556    162761.11    72.221213    72.221213    36.032173          120    17113.137    19081.432   -35999.199    1481.9889    -2655.057   -1364.6579    72.221213    62.545406    36.032173    65.123404   -312187.52 
    1790    91.737234    162761.42    72.221258    72.221259    36.032196          120     17363.38    19281.898   -36119.581    1284.3651   -2613.2766   -1658.5385    72.221258    62.545445    36.032196    175.23233   -312188.54 
    1800    91.823896    162761.95    72.221336    72.221337    36.032235          120    17238.362    18819.485   -36409.128    1140.0588   -2191.6628   -1308.0952    72.221336    62.545513    36.032235   -117.09369   -312189.18 
    1810    91.004871    162762.26    72.221383    72.221383    36.032258          120    17086.121     18572.12   -36798.175    871.68046   -2046.7862   -1200.2223    72.221383    62.545553    36.032258   -379.97795   -312188.79 
    1820    91.319254    162761.91    72.221331    72.221331    36.032232          120    16989.271    18268.648   -37035.847    829.21589   -2370.4458   -1441.7017    72.221331    62.545508    36.032232   -592.64237    -312189.9 
    1830    90.941093    162760.63    72.221141    72.221142    36.032137          120    16967.974    18228.271   -36399.273    964.07166   -2571.4111   -1123.1991    72.221141    62.545343    36.032137   -401.00932   -312190.13 
    1840    91.327206    162758.72    72.220859    72.220859    36.031997          120    17000.344    18436.288   -35828.784    1056.9048   -2297.2132   -1171.0308    72.220859    62.545099    36.031997    -130.7174   -312192.03 
    1850    91.107455    162756.63     72.22055    72.220551    36.031843          120    16927.589    18558.467    -35633.86    1013.8878   -2355.7528   -1253.5606     72.22055    62.544832    36.031843   -49.268348   -312192.26 
    1860    91.057179    162754.56    72.220244    72.220245     36.03169          120    17254.349    18869.823   -35586.221    867.94002   -2730.7011   -1294.4179    72.220244    62.544567     36.03169    179.31706   -312193.63 
    1870    90.168616    162752.84     72.21999     72.21999    36.031563          120    17096.134     19259.31   -35625.978    506.13277   -2863.1362   -1406.0669     72.21999    62.544346    36.031563    243.15547   -312192.84 
    1880    89.448508    162751.51    72.219792    72.219792    36.031464          120    16891.626    18578.449    -36044.49    610.36696   -2885.6507   -1359.1192    72.219792    62.544175    36.031464    -191.4718   -312192.65 
    1890    89.040738     162749.9    72.219555    72.219555    36.031346          120    16937.688    17795.753   -36316.658    837.68173        -2805   -1405.0649    72.219555     62.54397    36.031346   -527.73899   -312193.03 
    1900    88.779002    162747.48    72.219196    72.219196    36.031167          120    17055.875    17427.659   -36574.719    1296.9994   -2757.6096   -1499.5215    72.219196    62.543659    36.031167   -697.06161   -312194.02 
    1910    89.252419    162743.96    72.218676    72.218677    36.030908          120    17068.318    17581.286   -36818.671    1623.6446   -2594.3199   -1264.6875    72.218676    62.543209    36.030908   -723.02248    -312195.8 
    1920    89.098516    162739.44    72.218007    72.218008    36.030574          120    17017.845    18397.977   -36156.821    1391.7528   -2530.3876   -987.44801    72.218007     62.54263    36.030574   -246.99979   -312196.13 
    1930    88.472609    162734.63    72.217296    72.217297    36.030219          120    16961.846    18915.812   -35640.489    1177.2671   -2446.3287   -698.20619    72.217296    62.542014    36.030219    79.056518   -312195.74 
    1940    88.582674    162730.11    72.216628    72.216628    36.029886          120    17212.531    19394.558   -35879.041    1034.7924   -1956.1866   -606.56731    72.216628    62.541435    36.029886    242.68245   -312196.75 
    1950    88.401464    162726.16    72.216043    72.216043    36.029594          120    17590.215    19239.351   -35758.388    1068.5431   -1828.9445   -604.68906    72.216043    62.540928    36.029594    357.05905   -312196.69 
    1960    88.265457    162722.92    72.215564    72.215565    36.029355          120    17653.214    19060.806   -35776.647    1247.9581   -2265.8836   -805.68229    72.215564    62.540514    36.029355    312.45753   -312197.88 
    1970    87.006369    162720.34    72.215182    72.215182    36.029164          120    17771.778    18768.512   -35726.255    1022.1952   -2660.9071   -869.68344    72.215182    62.540183    36.029164    271.34519   -312196.02 
    1980    87.781066    162718.32    72.214882    72.214883    36.029015          120    17682.105    18942.035    -35730.53    554.38063   -2643.1351   -1095.4228    72.214882    62.539923    36.029015    297.87008   -312197.43 
    1990    88.321306     162716.9    72.214673    72.214674     36.02891          120    17684.934     19531.16   -35553.133    404.63646   -2593.2685   -1437.9617    72.214673    62.539742     36.02891    554.32012   -312198.81 
    2000    88.153667    162716.51    72.214615    72.214615    36.028881          120    17889.423    19821.618   -34783.811    581.89334   -2451.7765   -1184.3189    72.214615    62.539691    36.028881    975.74313    -312198.7 
    2010    88.148068    162717.67    72.214786    72.214787    36.028967          120    17507.078    19718.862   -34777.957    712.41338   -2213.8861   -856.89538    72.214786     62.53984    36.028967    815.99427   -312199.15 
    2020    88.017907    162720.19    72.215159     72.21516    36.029153          120    17481.555    19561.947   -34977.426    1034.4227   -2230.9456   -889.74831    72.215159    62.540163    36.029153    688.69168   -312198.96 
    2030    87.722691    162723.76    72.215687    72.215688    36.029417          120    17615.443     19275.83   -35440.208    1012.1215   -2060.2199   -887.34013    72.215687     62.54062    36.029417    483.68852   -312198.43 
    2040    87.436523    162728.07    72.216325    72.216326    36.029735          120    17662.516     19240.15   -35143.008    587.21688   -2074.5918   -1038.0302    72.216325    62.541173    36.029735    586.55272   -312197.87 
    2050    87.485134     162733.2    72.217084    72.217084    36.030113          120    17796.526    19062.868   -35343.711    754.13934   -2066.7852    -1244.067    72.217084     62.54183    36.030113    505.22748   -312198.12 
    2060    87.949955    162738.95    72.217935    72.217936    36.030538          120    17899.028    18212.911   -35662.323    996.40868   -2272.6422   -1526.0049    72.217935    62.542567    36.030538    149.87207   -312198.98 
    2070    87.382154     162744.8      72.2188    72.218801     36.03097          120    17390.547    17991.602   -35623.025    1117.3631   -2087.3146   -1654.2729      72.2188    62.543316     36.03097   -80.291975   -312197.85 
    2080    87.437175     162750.3    72.219613    72.219614    36.031375          120    17218.142    17845.673   -36093.284    1454.9054   -2037.6445   -1512.0136    72.219613     62.54402    36.031375   -343.15637    -312197.5 
    2090    87.643175    162755.06    72.220318    72.220318    36.031727          120    17005.387    18024.934   -36218.565    1139.4748   -2037.6661   -1736.6681    72.220318     62.54463    36.031727   -396.08141    -312197.4 
    2100    87.853669    162758.98    72.220897    72.220897    36.032016          120    16812.104    18136.674   -36367.826    815.76583   -1953.6464   -1361.3295    72.220897    62.545132    36.032016   -473.01595   -312197.44 
    2110    88.049141    162762.02    72.221346    72.221347     36.03224          120    17105.911    18280.837   -36235.198    732.92349   -2043.8042   -1180.5043    72.221346    62.545521     36.03224   -282.81676   -312197.29 
    2120    88.004706    162764.43    72.221703    72.221704    36.032418          120     16963.04    18139.075   -35988.042     739.6811   -1890.0084   -1242.2663    72.221703     62.54583    36.032418   -295.30925   -312196.32 
    2130    88.815799    162766.24    72.221971    72.221972    36.032552          120    16857.463    18115.855   -36079.925    946.46253   -1656.5506   -1019.4591    72.221971    62.546063    36.032552   -368.86914   -312197.23 
    2140    89.344268    162767.39    72.222142    72.222143    36.032637          120    17122.769    18002.375   -35917.679    1128.1563   -1711.2322   -922.18643    72.222142     62.54621    36.032637   -264.17849   -312197.22 
    2150    89.988059    162768.08    72.222244    72.222245    36.032688          120    17669.837    18043.142   -35612.077     1062.871   -1878.1338   -1025.0191    72.222244    62.546299    36.032688    33.633879   -312197.67 
    2160    90.433521    162768.82    72.222353    72.222354    36.032742          120    17822.743    18403.496   -35130.827    1022.1921   -1835.5252   -877.44623    72.222353    62.546393    36.032742    365.13721   -312197.79 
    2170    90.194364    162770.09    72.222541    72.222541    36.032836          120    17790.612    18575.264   -35664.799    894.17475   -1922.7431   -378.34243    72.222541    62.546555    36.032836    233.69227   -312196.55 
    2180    90.730611    162771.65    72.222772    72.222773    36.032951          120    17309.226    18368.496   -36280.816    750.02461   -1997.7614   -732.61803    72.222772    62.546756    36.032951   -201.03136   -312196.74 
    2190    90.454926    162772.86    72.222951    72.222951     36.03304          120    16916.539    18416.576   -36530.052    985.18674   -2085.6427    -977.4872    72.222951    62.546911     36.03304   -398.97893    -312195.7 
    2200    90.422403    162773.39    72.223029     72.22303    36.033079          120    16709.185    18400.662   -36090.526    1102.6413   -2451.2423   -932.85363    72.223029    62.546979    36.033079   -326.89294   -312194.59 
    2210     91.28454    162773.35    72.223023    72.223023    36.033076          120    16794.696    18413.163   -35884.347    1190.6355   -2394.9609   -918.76242    72.223023    62.546973    36.033076   -225.49598    -312195.9 
    2220    90.759705    162772.94    72.222962    72.222963    36.033046          120    17071.484     18533.72   -35953.949    1138.4683   -1935.6948   -1163.9602    72.222962    62.546921    36.033046   -116.24813   -312194.41 
    2230    90.853555    162772.33    72.222872    72.222872    36.033001          120    16809.606    18351.197   -35647.033    865.45129   -1656.3985   -1077.9108    72.222872    62.546842    36.033001   -162.07663   -312194.09 
    2240     91.34826    162771.47    72.222745    72.222746    36.032938          120    17067.193    18075.019   -35508.385    706.77758   -1628.7033   -1096.7867    72.222745    62.546733    36.032938   -122.05772   -312194.47 
    2250    91.132245    162770.43    72.222591    72.222592    36.032861          120    17390.428    18268.098   -35891.291    604.86995   -1821.2585   -999.70029    72.222591    62.546599    36.032861   -77.588382   -312193.27 
    2260    92.573809    162769.29    72.222423    72.222423    36.032777          120    17302.439    18669.031   -35850.989    675.07717   -2163.4589   -680.30634    72.222423    62.546453    36.032777    40.160302   -312195.34 
[...]
   99200    89.586988    162987.53    72.254686    72.254686    36.048873          120    16701.815    18656.773   -36116.076    879.45995   -1951.9472   -1041.1941    72.254686    62.574394    36.048873   -252.49589   -312205.73 
   99210    90.168596    162991.46    72.255267    72.255268    36.049164          120    16799.668    18835.435   -36511.985    559.47809   -2314.1116   -1078.8346    72.255267    62.574898    36.049164   -292.29433   -312207.18 
   99220    89.767007    162994.88    72.255773    72.255773    36.049416          120    16963.261    18285.485   -36445.515    760.62906   -2014.8513   -1073.0067    72.255773    62.575335    36.049416   -398.92308   -312205.81 
   99230    91.064619    162997.62    72.256178    72.256179    36.049618          120    17009.448    18327.223    -36500.94    1172.4772   -1565.6234   -1113.9128    72.256178    62.575686    36.049618   -388.08938   -312208.44 
   99240    89.723431    162999.69    72.256483    72.256484     36.04977          120    16712.529    18464.543   -36308.805    930.93895   -1895.2935   -1132.9205    72.256483    62.575951     36.04977   -377.24432   -312205.88 
   99250    90.469919    163001.14    72.256697    72.256698    36.049877          120     16739.59     18892.47   -36153.908    1000.4067   -2233.0812   -879.31944    72.256697    62.576136    36.049877   -173.94955    -312207.3 
   99260    89.433129    163002.27    72.256864    72.256864     36.04996          120    16878.792    19010.238   -36106.007    1228.2059   -1833.3474   -1224.5365    72.256864     62.57628     36.04996   -72.325653   -312205.12 
   99270    90.601456    163003.22    72.257005    72.257005     36.05003          120    16467.909    18877.785   -36271.618    1246.9202   -1317.1331   -1251.9817    72.257005    62.576402     36.05003   -308.64166    -312207.5 
   99280     89.44932    163003.69    72.257074    72.257074    36.050065          120    16424.479     18637.99   -36225.487    1119.2801   -1230.3821   -1249.0373    72.257074    62.576462    36.050065   -387.67265   -312205.14 
   99290    90.013613    163003.46     72.25704    72.257041    36.050048          120      16736.1    18607.483   -36868.461    984.84746   -1629.9289    -926.2938     72.25704    62.576433    36.050048   -508.29293   -312206.61 
   99300    90.358594    163002.39    72.256882    72.256882    36.049969          120    16760.619    18729.715   -36768.056     874.9094   -1961.1863    -1038.027    72.256882    62.576296    36.049969   -425.90726   -312207.34 
   99310    89.682346    163000.57    72.256613    72.256614    36.049835          120    16432.001    18804.696   -36532.528     683.8155   -1992.0637   -1353.8575    72.256613    62.576063    36.049835   -431.94363   -312206.21 
   99320    90.158506    162998.01    72.256235    72.256236    36.049646          120    16138.859    19133.889     -36627.4    876.04634   -1609.8397   -1464.1624    72.256235    62.575736    36.049646   -451.55049      -312207 
   99330     90.04204     162994.7    72.255746    72.255746    36.049402          120     16140.76    19133.504   -36336.619    859.77871   -1847.6256   -1199.3658    72.255746    62.575312    36.049402   -354.11847   -312206.69 
   99340    90.225934    162990.72    72.255158    72.255158    36.049109          120    16450.583    18937.126   -36723.208    1096.8775   -2019.6971   -736.97049    72.255158    62.574803    36.049109   -445.16632    -312207.3 
   99350    89.930557    162986.03    72.254465    72.254466    36.048763          120    16579.054    18919.554   -36339.924    1195.7728    -1932.605   -1270.2408    72.254465    62.574203    36.048763   -280.43892   -312206.96 
   99360    89.732582    162980.76    72.253685    72.253686    36.048374          120     16475.55    18198.985   -36397.766    987.49473   -2243.4748   -1070.2163    72.253685    62.573528    36.048374   -574.41059   -312206.72 
   99370    89.934085    162974.57    72.252771    72.252772    36.047918          120    16577.635    18242.932   -36222.658    961.60074   -2077.7314     -1084.68    72.252771    62.572736    36.047918   -467.36362   -312207.09 
   99380    89.379872    162967.56    72.251735    72.251735    36.047401          120    16197.928    18913.931   -36174.318    924.35438   -1588.7157   -1083.5921    72.251735    62.571839    36.047401   -354.15271   -312205.98 
   99390    90.635006    162959.93    72.250607    72.250608    36.046839          120    16157.138    18948.239   -35856.111     831.9201   -1758.9398   -956.88204    72.250607    62.570862    36.046839   -250.24474   -312208.67 
   99400    89.672099    162951.84    72.249412    72.249412    36.046242          120    16097.146    19210.879   -35990.975     1064.442   -1422.5468   -1134.2605    72.249412    62.569827    36.046242   -227.65006   -312207.09 
   99410    89.980279    162943.38    72.248161    72.248162    36.045618          120    16743.221    19245.028   -36121.762    1096.8941   -1491.3407   -1037.1567    72.248161    62.568744    36.045618   -44.504433   -312207.73 
   99420    90.137342    162934.85    72.246901    72.246902    36.044989          120    17408.424     19386.51   -36139.046    1061.7106   -1821.8643   -1294.3175    72.246901    62.567652    36.044989    218.62936   -312207.77 
   99430    88.860394     162926.7    72.245696    72.245696    36.044388          120    17878.116    19539.715   -35937.872    1171.7742   -1832.8294   -880.11096    72.245696    62.566609    36.044388    493.31988   -312204.99 
   99440    89.814703    162919.36    72.244611    72.244611    36.043847          120    17476.048    19918.252   -35516.663    1137.4794   -1966.1287   -468.56405    72.244611    62.565669    36.043847    625.87904   -312207.31 
   99450    90.991219    162913.05    72.243679     72.24368    36.043382          120    17242.168    19832.582    -35640.06    750.99996   -1771.1441   -817.24187    72.243679    62.564862    36.043382    478.22971   -312209.77 
   99460    89.394402    162907.57    72.242869    72.242869    36.042978          120    17459.305    19581.452   -36151.011    653.94335   -1754.6257   -991.44026    72.242869     62.56416    36.042978    296.58189   -312206.97 
   99470    89.833573    162902.62    72.242137    72.242138    36.042613          120    17596.157    19512.082   -35997.721    774.01389    -1753.512   -762.90054    72.242137    62.563527    36.042613    370.17294   -312207.89 
   99480     89.50975    162898.32    72.241501    72.241501    36.042295          120    17605.522    19560.084   -35755.255    578.35471   -1727.9509    -1105.816    72.241501    62.562976    36.042295    470.11699   -312207.25 
   99490    88.840689     162894.8     72.24098    72.240981    36.042036          120    17292.371     19299.55   -35539.279    711.86201    -1793.513   -1380.8133     72.24098    62.562525    36.042036     350.8807   -312206.34 
   99500    90.077048     162891.9    72.240552    72.240553    36.041822          120    16973.742    19343.192   -35357.487     975.3792   -2014.8454   -1182.5767    72.240552    62.562154    36.041822    319.81551      -312209 
   99510    89.118872    162889.54    72.240203    72.240204    36.041648          120    16716.503    19752.022   -35727.754    833.20027   -2386.4618   -1438.9282    72.240203    62.561852    36.041648    246.92352   -312207.46 
   99520    90.142827    162887.63    72.239921    72.239921    36.041507          120    16625.193    19491.622   -35236.418    900.30712   -2131.2703   -1228.8519    72.239921    62.561607    36.041507    293.46598    -312209.2 
   99530    89.136164    162886.18    72.239706    72.239707      36.0414          120     16834.29    19336.937   -35661.613    1092.7441   -2030.9258   -1161.0859    72.239706    62.561421      36.0414     169.8715    -312207.5 
   99540    89.785898    162885.04    72.239539    72.239539    36.041316          120    17308.586    19357.576   -36122.006    842.89056   -2338.7603   -725.62002    72.239539    62.561276    36.041316    181.38538   -312208.75 
   99550    89.534744    162884.22    72.239417    72.239417    36.041255          120    17139.335    19654.119   -36050.531    1014.1554   -2085.1019   -784.10395    72.239417    62.561171    36.041255    247.64111   -312208.17 
   99560     89.75912    162883.89    72.239369    72.239369    36.041231          120    17440.079    19599.081   -35007.163    927.56577   -2003.4607   -784.35115    72.239369    62.561129    36.041231    677.33244   -312208.68 
   99570    89.748708    162884.67    72.239483    72.239484    36.041289          120    17794.863    19491.277   -35126.277    772.47244   -1704.4846   -754.94546    72.239483    62.561228    36.041289    719.95426   -312208.56 
   99580    89.330707    162886.67    72.239779     72.23978    36.041436          120    17475.337    19312.839   -35016.037    797.37972   -1375.7736   -993.10207    72.239779    62.561485    36.041436    590.71312   -312208.07 
   99590    88.671402    162889.72     72.24023     72.24023    36.041661          120    17348.106    19517.163   -34979.715    1150.5344    -1326.036    -1355.149     72.24023    62.561875    36.041661    628.51811   -312206.74 
   99600    90.150839    162893.86    72.240843    72.240843    36.041967          120    17169.714    19927.609   -34758.896    1117.1588   -1730.6539   -1765.7065    72.240843    62.562406    36.041967    779.47533   -312209.51 
   99610    89.188201    162899.29    72.241644    72.241645    36.042367          120    16941.469    19693.242   -34960.401    726.21619   -2022.7352   -1472.4721    72.241644      62.5631    36.042367    558.10312   -312207.76 
   99620    89.398812    162905.77    72.242603    72.242603    36.042845          120    17440.422    19539.778   -34703.295    661.39494   -2221.9396   -1360.1393    72.242603     62.56393    36.042845    758.96841   -312208.08 
   99630    90.031517    162913.51    72.243747    72.243748    36.043416          120    17258.157    19633.912   -34731.267    830.40673   -2333.1559   -1040.4354    72.243747    62.564921    36.043416    720.26727   -312208.85 
   99640    89.480342    162922.41    72.245062    72.245062    36.044072          120    16795.535     19368.07    -35650.67    1194.2394   -2397.1111   -305.45809    72.245062     62.56606    36.044072    170.97826   -312208.07 
   99650    89.575178    162931.73     72.24644    72.246441    36.044759          120     16708.11    19446.961   -35653.036     1338.398   -2303.6624    69.752855     72.24644    62.567253    36.044759    167.34495   -312207.93 
   99660    89.996909    162941.27     72.24785    72.247851    36.045463          120    16365.199     18984.42   -35764.891    1080.8321   -1770.4312     -574.151     72.24785    62.568474    36.045463   -138.42396   -312208.21 
   99670    89.454643    162950.65    72.249236    72.249237    36.046154          120    17008.933    18556.037   -35772.372    912.93167   -1564.9524   -381.33428    72.249236    62.569674    36.046154   -69.134081   -312206.87 
   99680    90.195203    162959.93    72.250608    72.250608    36.046839          120    17167.218    18797.449    -35497.92    961.87058   -1645.6564   -510.55063    72.250608    62.570862    36.046839    155.58265   -312207.81 
   99690    89.573677    162969.51    72.252023    72.252024    36.047545          120    17281.461     18757.64   -34823.226    1120.8058   -1721.3385   -1031.8756    72.252023    62.572088    36.047545    405.29164   -312206.42 
   99700    90.003315    162979.63    72.253519     72.25352    36.048291          120    16768.268    18523.154   -35874.878    1311.4518   -1588.0435   -1321.1621    72.253519    62.573384    36.048291    -194.4857   -312207.15 
   99710    89.521734    162989.44    72.254969    72.254969    36.049015          120    16037.434    18225.281    -36509.96    1172.7964   -1641.0429   -1447.6229    72.254969    62.574639    36.049015   -749.08144   -312205.99 
   99720    90.455007       162998    72.256233    72.256234    36.049645          120    16153.067    18050.176   -37128.796    962.80759   -1737.9164   -1281.0012    72.256233    62.575734    36.049645   -975.18422   -312207.39 
   99730    90.332723     163004.9    72.257253    72.257253    36.050154          120     16550.53    18067.547   -37416.976    846.97631   -1959.4728   -1515.7862    72.257253    62.576617    36.050154   -932.96609   -312206.68 
   99740    90.294017    163010.21    72.258038    72.258039    36.050546          120    17022.257    17724.903   -37111.008    688.33167   -1992.7517   -1216.7917    72.258038    62.577297    36.050546   -787.94959    -312206.2 
   99750    90.140548    163014.19    72.258626    72.258626    36.050839          120    16794.383    18282.643   -36820.168    805.49803   -2189.0004    -1193.183    72.258626    62.577806    36.050839    -581.0476   -312205.46 
   99760     90.15873    163017.13    72.259061    72.259061    36.051056          120    16636.658    18592.944   -36796.096    984.08352   -2261.9548   -1247.0286    72.259061    62.578183    36.051056   -522.16471   -312205.09 
   99770     90.64407    163019.12    72.259354    72.259354    36.051202          120    16164.012    18500.255   -36963.443    772.76567   -1999.4039   -1151.0349    72.259354    62.578437    36.051202   -766.39201   -312205.96 
   99780    89.722296    163019.85    72.259462    72.259463    36.051256          120    15983.955    18488.647   -36477.229    764.03008   -1564.8243   -1070.2542    72.259462    62.578531    36.051256    -668.2093   -312203.95 
   99790     90.38362    163019.38    72.259393    72.259393    36.051222          120    16165.197    18570.407   -36852.161    914.96003   -1539.5457   -1161.9399    72.259393     62.57847    36.051222   -705.51915   -312204.99 
   99800    90.575898    163017.68    72.259141    72.259142    36.051096          120    15849.846    18549.099   -36734.578    924.65555   -1823.4113   -1842.7655    72.259141    62.578253    36.051096   -778.54422   -312205.46 
   99810     90.57814    163014.63    72.258691    72.258691    36.050871          120    15456.506    18560.328   -36681.795    999.72678   -1850.7639   -1779.9768    72.258691    62.577862    36.050871   -888.32012   -312205.64 
   99820    90.549267    163010.06    72.258015    72.258016    36.050535          120    15580.216    18626.459   -37051.374    1163.0481   -1691.2833   -1312.9605    72.258015    62.577277    36.050535    -948.2331   -312205.76 
   99830    90.006502    163003.85    72.257099    72.257099    36.050077          120    15812.811    18235.672    -36947.91    1037.0204   -1706.2112   -1330.3652    72.257099    62.576484    36.050077   -966.47576   -312204.95 
   99840    90.508987    162995.99    72.255937    72.255937    36.049497          120    15778.529    18514.817   -36549.691    742.28786   -1491.7181   -941.89208    72.255937    62.575477    36.049497   -752.11497   -312206.03 
   99850    91.153662    162986.81     72.25458    72.254581    36.048821          120    15959.585    18810.129   -36229.727    541.02098   -1638.9585   -860.20262     72.25458    62.574303    36.048821   -486.67088   -312207.01 
   99860    90.549953    162976.79    72.253099    72.253099    36.048082          120    16104.936    19162.186   -36027.819    856.34982   -1722.1113   -680.80058    72.253099     62.57302    36.048082   -253.56572   -312205.67 
   99870    91.248135    162966.35    72.251557    72.251557    36.047312          120    16707.312    19207.464    -35522.82    825.80187    -1718.624   -1123.9626    72.251557    62.571684    36.047312    130.65193   -312207.15 
   99880    90.147163    162956.07    72.250037    72.250038    36.046554          120    17018.426    18870.931   -35476.223    839.51578   -1606.9633   -1405.9601    72.250037    62.570368    36.046554    137.71128   -312205.31 
   99890    90.860782       162946    72.248548    72.248549    36.045811          120     16985.91    18556.378   -35730.362     985.7237   -1730.0868    -1153.912    72.248548    62.569079    36.045811   -62.691253   -312206.82 
   99900    90.499449    162935.79    72.247041    72.247041    36.045059          120    16688.282    18383.983   -35905.854    706.26765   -1832.2835   -1267.7785    72.247041    62.567773    36.045059   -277.86293   -312206.06 
   99910    90.701299    162925.19    72.245473    72.245474    36.044277          120    16648.822    19025.987   -35897.557    1028.0395    -1598.056   -1109.0463    72.245473    62.566416    36.044277   -74.249353   -312206.86 
   99920    90.308214    162914.46    72.243887    72.243887    36.043486          120    16997.738    19378.763   -35944.855    1043.8322   -1862.1201   -1228.3929    72.243887    62.565042    36.043486    143.88217    -312206.3 
   99930    89.604177    162903.96    72.242334    72.242335    36.042711          120    17287.881    19409.481   -35818.137    852.27958   -2029.6039   -1155.0459    72.242334    62.563697    36.042711    293.07491   -312205.03 
   99940    89.481671    162893.96    72.240856    72.240857    36.041974          120     17693.18    19169.367     -35377.3    720.58964   -2185.7379   -1034.5833    72.240856    62.562417    36.041974    495.08218   -312204.82 
   99950    90.234425    162884.72    72.239491    72.239492    36.041293          120    17733.206    19080.804   -35818.875    1044.0769   -2197.4007   -724.89147    72.239491    62.561235    36.041293    331.71198   -312206.55 
   99960    90.489033    162876.08    72.238213    72.238213    36.040655          120    17559.191    19168.532   -35781.089    1207.1666   -2165.2322   -864.40189    72.238213    62.560128    36.040655     315.5446   -312207.15 
   99970    90.358103    162868.02    72.237022    72.237022    36.040061          120    17519.497    19590.501   -35277.762    1296.9257   -1887.1318   -1278.6096    72.237022    62.559097    36.040061    610.74523   -312206.85 
   99980    89.908053    162861.03    72.235988    72.235989    36.039545          120    17743.452    20073.628   -34886.573      1083.89   -1584.1489   -1084.2428    72.235988    62.558201    36.039545    976.83575    -312206.1 
   99990    90.839436    162855.68    72.235198    72.235199    36.039151          120    18154.098    19996.719   -34809.704    1039.7676   -1429.6803   -727.01885    72.235198    62.557517    36.039151    1113.7044   -312208.65 
  100000    89.675042    162852.24    72.234688    72.234689    36.038896          120    18197.414     19906.08   -34964.078    1051.5127   -1729.1419   -863.66148    72.234688    62.557076    36.038896    1046.4721    -312206.5 
Loop time of 36307.1 on 1 procs for 100000 steps with 14848 atoms

Performance: 0.238 ns/day, 100.853 hours/ns, 2.754 timesteps/s
100.0% CPU use with 1 MPI tasks x no OpenMP threads

MPI task timing breakdown:
Section |  min time  |  avg time  |  max time  |%varavg| %total
---------------------------------------------------------------
Pair    | 31875      | 31875      | 31875      |   0.0 | 87.79
Bond    | 0.056236   | 0.056236   | 0.056236   |   0.0 |  0.00
Kspace  | 1472.2     | 1472.2     | 1472.2     |   0.0 |  4.05
Neigh   | 2099.1     | 2099.1     | 2099.1     |   0.0 |  5.78
Comm    | 41.663     | 41.663     | 41.663     |   0.0 |  0.11
Output  | 1.3518     | 1.3518     | 1.3518     |   0.0 |  0.00
Modify  | 801.37     | 801.37     | 801.37     |   0.0 |  2.21
Other   |            | 16.6       |            |       |  0.05

Nlocal:    14848 ave 14848 max 14848 min
Histogram: 1 0 0 0 0 0 0 0 0 0
Nghost:    46898 ave 46898 max 46898 min
Histogram: 1 0 0 0 0 0 0 0 0 0
Neighs:    1.01062e+07 ave 1.01062e+07 max 1.01062e+07 min
Histogram: 1 0 0 0 0 0 0 0 0 0

Total # of neighbors = 10106171
Ave neighs/atom = 680.642
Ave special neighs/atom = 0
Neighbor list builds = 6248
Dangerous builds = 0
 
All done!
Total wall time: 10:11:31
