LAMMPS (16 Mar 2018)
Reading data file ...
  triclinic box = (0 0 0) to (9.208 7.97436 18.376) with tilt (-4.604 0 0)
  1 by 1 by 1 MPI processor grid
  reading atoms ...
  116 atoms
Finding 1-2 1-3 1-4 neighbors ...
  special bond factors lj:   0          0          0         
  special bond factors coul: 0          0          0         
  0 = max # of 1-2 neighbors
  0 = max # of 1-3 neighbors
  0 = max # of 1-4 neighbors
  1 = max # of special neighbors
Replicating atoms ...
  triclinic box = (0 0 0) to (73.664 63.7949 36.752) with tilt (-36.832 0 0)
  1 by 1 by 1 MPI processor grid
  14848 atoms
Finding 1-2 1-3 1-4 neighbors ...
  special bond factors lj:   0          0          0         
  special bond factors coul: 0          0          0         
  0 = max # of 1-2 neighbors
  0 = max # of 1-3 neighbors
  0 = max # of 1-4 neighbors
  1 = max # of special neighbors
  Time spent = 0.00341511 secs
PPPM initialization ...
WARNING: System is not charge neutral, net charge = -0.2048 (../kspace.cpp:302)
  using 12-bit tables for long-range coulomb (../kspace.cpp:321)
  G vector (1/distance) = 0.201681
  grid = 36 50 24
  stencil order = 5
  estimated absolute RMS force accuracy = 0.00105653
  estimated relative force accuracy = 7.33721e-05
  using double precision FFTs
  3d grid and FFT values/proc = 65395 43200
Neighbor list info ...
  update every 1 steps, delay 0 steps, check yes
  max neighbors/atom: 2000, page size: 100000
  master list distance cutoff = 15.3
  ghost atom cutoff = 15.3
  binsize = 7.65, bins = 15 9 5
  3 neighbor lists, perpetual/occasional/extra = 3 0 0
  (1) pair morse, perpetual
      attributes: half, newton on
      pair build: half/bin/newton/tri
      stencil: half/bin/3d/newton/tri
      bin: standard
  (2) pair buck, perpetual, copy from (1)
      attributes: half, newton on
      pair build: copy
      stencil: none
      bin: none
  (3) pair lj/cut/coul/long, perpetual, copy from (1)
      attributes: half, newton on
      pair build: copy
      stencil: none
      bin: none
Setting up Verlet run ...
  Unit style    : metal
  Current step  : 0
  Time step     : 0.001
Per MPI rank memory allocation (min/avg/max) = 145.7 | 145.7 | 145.7 Mbytes
Step Temp Volume Cella Cellb Cellc CellGamma Pxx Pyy Pzz Pxy Pxz Pyz Lx Ly Lz Press PotEng 
       0           50    172711.88       73.664    73.664001       36.752          120   -210931.13   -210932.78   -281921.57     5.236554   -1.2754381    1.6989966       73.664    63.794896       36.752   -234595.16   -309191.56 
      10    239.85709    172304.88    73.606091    73.606092    36.723108          120   -213339.04      -213397   -260892.78    55.774372   -0.7428754   -75.774996    73.606091    63.744746    36.723108   -229209.61    -309650.5 
      20    474.07559    171167.23    73.443738    73.443739    36.642108          120   -208868.27   -208641.81   -195704.14    16.904652   -117.78213   -163.38402    73.443738    63.604143    36.642108   -204404.74   -310288.11 
      30    390.85046    169719.31    73.236062    73.236063    36.538496          120    -187625.1   -187232.96   -106527.56   -142.64729    -411.2048   -207.24779    73.236062    63.424291    36.538496   -160461.87   -310353.65 
      40    141.82951    168479.75     73.05733     73.05733    36.449324          120   -159952.39   -159638.78    -28940.35   -312.29627   -799.09157   -249.87102     73.05733    63.269504    36.449324   -116177.17    -310013.7 
      50    198.08307    167502.22    72.915762    72.915763    36.378694          120   -129527.03   -129297.24    1905.7429   -352.95091    -1004.579   -423.43259    72.915762    63.146903    36.378694   -85639.508   -310186.73 
      60    515.13864    166654.69    72.792574    72.792574    36.317233          120   -97447.676   -97155.371   -33121.112   -501.52753   -1791.8912   -383.20138    72.792574    63.040219    36.317233   -75908.053   -310870.15 
      70     695.6741     165867.2    72.677738    72.677738     36.25994          120   -62247.138   -61789.181   -91903.351   -659.74971   -2462.2954   -214.95142    72.677738    62.940768     36.25994    -71979.89   -311354.32 
      80    550.27008    165131.14    72.570072    72.570072    36.206224          120   -28102.217   -27843.914   -123531.06   -1082.2574   -2768.9437    67.887751    72.570072    62.847526    36.206224   -59825.729   -311208.87 
      90    314.63166    164471.89     72.47337     72.47337    36.157978          120   -6627.4277   -6687.2872   -125445.26   -1449.8902   -3359.2707    430.10112     72.47337     62.76378    36.157978   -46253.324   -310840.29 
     100    380.21766    163909.97    72.390741    72.390741    36.116753          120    13394.065    13871.532   -98734.989   -1542.7468   -3532.6047    557.41287    72.390741    62.692221    36.116753   -23823.131   -311025.61 
     110    514.46661    163469.96    72.325906    72.325906    36.084406          120    29681.296    30636.219   -54477.966   -1536.0539   -3331.9988    374.01266    72.325906    62.636073    36.084406    1946.5164   -311363.91 
     120    452.74169    163170.63    72.281734    72.281734    36.062368          120     32121.87    33246.324   -8570.6093   -1515.8512   -3629.7721    228.20848    72.281734    62.597818    36.062368    18932.528   -311332.18 
     130    343.69644    163005.61    72.257358    72.257359    36.050207          120    23385.495    24862.376    22506.643   -1626.2927   -4110.5893   -288.61848    72.257358    62.576709    36.050207    23584.838   -311188.89 
     140    339.89217     162945.6     72.24849     72.24849    36.045782          120    15354.487    16474.313    22958.944   -1654.2206   -3971.4925   -119.31349     72.24849    62.569028    36.045782    18262.581   -311234.72 
     150    410.33141    162946.66    72.248647    72.248647     36.04586          120    8235.3583    9392.0142   -11021.637   -1688.1044   -3732.6675     261.6333    72.248647    62.569164     36.04586     2201.912   -311433.82 
     160    427.23118     162951.9     72.24942    72.249421    36.046246          120   -180.39166    1798.1694   -50375.631   -1780.8493   -3721.8904    567.12798     72.24942    62.569834    36.046246   -16252.618   -311543.33 
     170    357.44605    162912.37    72.243578    72.243579    36.043332          120   -2598.9512   -123.93457   -74631.334   -1576.5512   -3793.0428    606.97749    72.243578    62.564775    36.043332    -25784.74   -311481.67 
     180    298.03869    162811.65    72.228687    72.228688    36.035902          120    3219.9629    5958.5068   -81344.278   -1417.1419    -3549.039    238.93481    72.228687    62.551879    36.035902   -24055.269   -311424.76 
     190    310.04312    162665.67    72.207093    72.207094    36.025129          120    9968.2617    12768.782   -68323.008   -1104.9991   -3024.1779    354.25924    72.207093    62.533178    36.025129   -15195.322   -311498.91 
     200    335.41224    162506.53    72.183538    72.183539    36.013377          120    13921.022    16391.901   -41436.991   -1107.6277   -2510.9233    45.400978    72.183538    62.512779    36.013377   -3708.0228   -311605.07 
     210    309.16419    162367.27    72.162913    72.162913    36.003087          120    16147.449    18831.791   -16839.822   -819.24831    -2696.076    34.485266    72.162913    62.494916    36.003087    6046.4727    -311612.3 
     220     271.5938    162269.89    72.148483    72.148484    35.995887          120     17291.35    19788.386   -4505.6406    -732.4975   -3360.6307    273.23775    72.148483     62.48242    35.995887    10858.032   -311588.66 
     230    265.75007    162218.98    72.140938    72.140938    35.992123          120    17214.669    18413.411   -8655.8283   -974.43047   -3924.6188   -63.986048    72.140938    62.475885    35.992123    8990.7507    -311621.2 
     240    281.96958    162200.49    72.138197    72.138198    35.990756          120     13989.08    14188.974   -24900.099   -1049.7776    -4257.338    137.01433    72.138197    62.473512    35.990756    1092.6517   -311697.16 
     250    276.65047    162187.77     72.13631    72.136311    35.989814          120    11118.468    10752.214    -43694.98   -1081.7424   -4151.2197    202.11991     72.13631    62.471878    35.989814   -7274.7662   -311733.83 
     260    249.85198     162157.3    72.131793    72.131794    35.987561          120    11155.216    10925.029   -57141.688   -1188.4368   -3824.6141    27.692485    72.131793    62.467966    35.987561   -11687.148   -311726.38 
     270    228.81633    162099.85    72.123274    72.123274     35.98331          120    13153.195    13249.582   -59029.971   -1199.5588   -3688.8522    361.98963    72.123274    62.460588     35.98331   -10875.731   -311723.86 
     280    231.40515    162021.86    72.111705    72.111706    35.977539          120    15976.092    16824.736   -49106.568   -1067.2279   -3585.9895    419.83715    72.111705    62.450569    35.977539   -5435.2467   -311765.16 
     290    233.33991    161941.38    72.099763    72.099764    35.971581          120    19509.624    21100.169   -33635.609   -1364.3583    -3519.136    305.30594    72.099763    62.440227    35.971581    2324.7284   -311806.48 
     300     222.1763    161879.41    72.090566    72.090567    35.966992          120    21645.417    23140.491   -20871.185   -1296.6423   -3420.2556    18.933037    72.090566    62.432262    35.966992    7971.5743   -311821.75 
     310    206.00573    161848.52     72.08598    72.085981    35.964704          120    20918.076    22212.471   -14112.997   -1304.0394   -3625.0031    -262.7324     72.08598    62.428291    35.964704    9672.5165   -311823.95 
     320    201.57737    161848.42    72.085965    72.085965    35.964696          120    17650.825    18840.724   -16218.604   -1322.2334   -3597.2362   -633.10529    72.085965    62.428277    35.964696    6757.6483   -311847.17 
     330    202.44746    161866.89    72.088707    72.088707    35.966064          120     14589.37     16044.11     -25441.9   -1359.0983   -3677.6257   -768.59522    72.088707    62.430652    35.966064    1730.5269   -311879.57 
     340    195.98303    161887.79     72.09181    72.091811    35.967612          120    14038.785     15488.21   -36628.604   -1071.5946   -3530.9963   -524.07312     72.09181     62.43334    35.967612   -2367.2032   -311897.14 
     350    182.77343    161899.41    72.093535    72.093535    35.968473          120    14327.216    16428.662   -44155.877   -1153.7839   -3171.1313   -666.64186    72.093535    62.434833    35.968473   -4466.6661   -311899.73 
     360    170.99674     161897.4    72.093236    72.093237    35.968324          120    15574.955    17704.446   -44118.914   -1350.5543   -2933.2019   -653.01363    72.093236    62.434575    35.968324    -3613.171   -311902.27 
     370    169.86621     161885.9     72.09153     72.09153    35.967472          120    17582.528    19359.884   -38779.998   -1148.8826   -2737.8944   -259.55254     72.09153    62.433097    35.967472   -612.52894   -311924.07 
     380     169.1442    161874.33    72.089812    72.089813    35.966616          120    18872.783    20325.843   -30950.401   -1191.8887   -2638.6007   -317.95331    72.089812    62.431609    35.966616    2749.4082   -311947.29 
     390    161.92309    161871.93    72.089455    72.089456    35.966438          120    18788.174    19974.044   -23915.809   -1408.6764    -2877.598   -114.17862    72.089455      62.4313    35.966438    4948.8031   -311957.51 
     400    152.63718    161883.66    72.091196    72.091197    35.967306          120    17769.569    19335.595   -21123.131    -1392.125   -3350.9783    53.777507    72.091196    62.432808    35.967306    5327.3443   -311961.39 
     410    150.51142    161908.84    72.094933    72.094934    35.969171          120    17477.355    18465.825   -23665.296   -1380.5539   -3360.1533    4.8823539    72.094933    62.436044    35.969171    4092.6279   -311977.58 
     420    148.39043    161942.39    72.099913    72.099914    35.971655          120    17238.859    17759.829   -29701.309   -1347.0591   -3247.5546    305.44508    72.099913    62.440357    35.971655    1765.7929    -311994.1 
     430    143.20389    161976.79    72.105018    72.105019    35.974202          120    16803.246    16582.176   -36231.698   -1268.0023   -3491.2709    685.15107    72.105018    62.444778    35.974202   -948.75852   -312003.06 
     440    136.28127    162004.58    72.109142    72.109142    35.976259          120    16662.201    16147.981   -40170.209   -1420.8081     -3356.06    806.04502    72.109142    62.448349    35.976259   -2453.3422   -312007.96 
     450    132.95792    162022.42    72.111789    72.111789     35.97758          120    17143.863    16569.618   -40102.624   -1630.5321   -2963.4353    612.03019    72.111789    62.450642     35.97758   -2129.7143   -312018.87 
     460    130.93487    162032.42    72.113272    72.113272     35.97832          120    18250.015    17544.179   -36781.789   -1547.2771   -2465.7194    64.778675    72.113272    62.451926     35.97832   -329.19863   -312031.45 
     470    128.78753    162040.46    72.114465    72.114465    35.978915          120     19266.44    18046.782     -31702.1   -1295.9258    -2051.672   -15.928073    72.114465    62.452959    35.978915     1870.374   -312043.46 
     480    123.15388    162052.91    72.116312    72.116312    35.979837          120    19486.336    18434.651   -27668.606   -1208.1054   -2290.0066    286.72602    72.116312    62.454559    35.979837    3417.4602   -312048.18 
     490    118.01441    162073.62    72.119383    72.119384    35.981369          120    19171.288    18589.133   -26488.103   -916.00968   -2453.4903    545.83316    72.119383    62.457218    35.981369    3757.4394   -312053.52 
     500    116.98354    162102.57    72.123677    72.123677    35.983511          120     18181.67    18304.263   -28439.803   -837.00023   -2618.4394    758.47659    72.123677    62.460937    35.983511    2682.0432   -312065.73 
     510     114.6701    162135.88    72.128617    72.128618    35.985976          120    17105.015    17540.589   -32324.109   -1158.0159   -2675.6403    540.46966    72.128617    62.465216    35.985976    773.83174   -312074.97 
     520    110.00419    162167.74    72.133342    72.133342    35.988333          120    16513.033    16088.737   -36257.402   -1146.6691   -2891.0364    557.42301    72.133342    62.469307    35.988333   -1218.5437   -312079.13 
     530       105.75    162192.77    72.137052    72.137052    35.990184          120    16098.575    15454.065   -38976.276   -971.75644   -2730.5548    702.46058    72.137052     62.47252    35.990184   -2474.5453   -312083.07 
     540    103.70547    162208.24    72.139345    72.139346    35.991328          120    16220.679    15885.336   -39202.432   -803.62708   -2281.5382    778.28039    72.139345    62.474506    35.991328   -2365.4722   -312090.56 
     550    102.01648    162215.42    72.140411    72.140411     35.99186          120    16335.144    16592.942   -36757.859   -705.69219     -2036.21    805.73511    72.140411    62.475429     35.99186   -1276.5909   -312098.83 
     560      98.3425    162218.26    72.140832    72.140832     35.99207          120    16801.422    17273.884   -33528.859   -767.26164   -2013.1708    704.24529    72.140832    62.475793     35.99207    182.14909   -312102.93 
     570    96.354856    162221.33    72.141286    72.141287    35.992297          120    17594.203     17675.17   -31143.748   -847.66821   -2130.0611    636.57615    72.141286    62.476187    35.992297    1375.2085   -312109.51 
     580    94.330502    162227.86    72.142254    72.142255     35.99278          120    17634.539    17663.042   -30586.148    -972.4989   -2420.7634    591.69997    72.142254    62.477025     35.99278    1570.4777    -312115.4 
     590    92.072317    162238.15    72.143779     72.14378    35.993541          120    17529.395    17267.806   -31724.751   -1078.7688   -2984.0099     586.2392    72.143779    62.478346    35.993541    1024.1499    -312120.5 
     600    91.244042    162250.24    72.145571    72.145572    35.994435          120    17437.614    16534.002    -34217.55   -1105.7796   -3116.5755    521.70112    72.145571    62.479898    35.994435   -81.977902    -312128.6 
     610    89.131225    162260.82     72.14714     72.14714    35.995217          120    16936.999    16140.173   -37023.113   -891.13454   -2963.2581    675.07528     72.14714    62.481256    35.995217   -1315.3136    -312133.9 
     620     86.35055    162266.62    72.147999    72.147999    35.995646          120    16366.317    16131.593   -38520.682   -1072.6274   -2694.7354    729.14728    72.147999       62.482    35.995646   -2007.5905   -312137.51 
     630    83.616621    162266.16     72.14793    72.147931    35.995612          120    16362.495     16275.25   -38153.699   -1184.9958   -2303.5498    781.53375     72.14793    62.481941    35.995612   -1838.6513      -312141 
     640    81.892869    162260.58    72.147104    72.147105      35.9952          120     16666.12    17069.402   -36118.394   -1304.8967   -1813.3199    474.91178    72.147104    62.481226      35.9952   -794.29086   -312145.84 
     650    80.045848    162253.33    72.146029    72.146029    35.994663          120    17522.506    18048.389   -33851.139   -1627.3725   -1906.6768    285.01743    72.146029    62.480294    35.994663    573.25224   -312150.09 
     660    78.644976    162248.39    72.145298    72.145298    35.994298          120    18231.236    18532.234    -31930.77   -1564.6551   -2210.4395    152.61216    72.145298    62.479661    35.994298       1610.9   -312154.64 
     670    76.510249    162248.45    72.145307    72.145307    35.994303          120    18142.075    18535.313   -31303.102   -1143.5959   -2532.1127    6.0971559    72.145307    62.479669    35.994303    1791.4288   -312157.69 
     680    75.288027    162253.56    72.146064    72.146064     35.99468          120    17565.013    18266.007   -32297.965   -950.41206   -2773.5237    73.099413    72.146064    62.480325     35.99468    1177.6853   -312162.25 
     690    74.108575    162261.59    72.147254    72.147254    35.995274          120    17258.329    17919.835   -34226.219   -862.90739   -2658.3364    241.80869    72.147254    62.481355    35.995274    317.31523   -312166.53 
     700    72.430463    162269.76    72.148464    72.148464    35.995878          120    16829.849    17313.304    -35946.74   -1052.5904   -2654.1651    245.08587    72.148464    62.482403    35.995878   -601.19561    -312169.6 
     710    70.821802    162275.58    72.149327    72.149327    35.996308          120    16978.055     17045.63   -36593.364   -1423.7538   -2681.7787    220.04456    72.149327     62.48315    35.996308   -856.55978    -312172.2 
     720    70.035284    162278.48    72.149757    72.149758    35.996523          120    17442.221    17050.633   -36137.274   -1536.5219   -2505.7898    35.290257    72.149757    62.483523    35.996523   -548.13997   -312176.77 
     730     68.13313    162279.61    72.149924    72.149924    35.996606          120    17622.357    17609.128   -34951.217   -1374.3759   -2450.0333   -179.68127    72.149924    62.483667    35.996606    93.422546   -312178.79 
     740    67.407632     162280.9    72.150116    72.150116    35.996702          120    17691.406     18070.88   -33668.246   -1270.5559   -2271.4011   -201.42931    72.150116    62.483834    35.996702    698.01337   -312182.78 
     750    66.112725    162284.07    72.150585    72.150585    35.996936          120    17736.768    17859.498   -32727.911   -1256.8719   -2146.1016   -192.50221    72.150585     62.48424    35.996936    956.11801   -312185.61 
     760    65.041274     162289.6    72.151404    72.151405    35.997345          120    17485.632    17121.218   -32774.772   -1217.7249   -2376.2548    33.841264    72.151404     62.48495    35.997345     610.6924   -312188.71 
     770    64.039815    162296.39    72.152411    72.152412    35.997847          120    17019.355    16672.602   -33536.702   -1268.7447   -2499.5448   -40.052463    72.152411    62.485821    35.997847    51.752119   -312191.79 
     780    63.190949    162302.73    72.153351    72.153351    35.998316          120    16883.023    16569.673   -34806.855   -1511.6472   -2525.5598   -96.262343    72.153351    62.486635    35.998316   -451.38644   -312194.71 
     790    62.008104    162307.28    72.154025    72.154025    35.998652          120    16762.048     16830.42   -35371.334   -1659.4776   -2679.7694    283.40613    72.154025    62.487219    35.998652   -592.95566   -312197.07 
     800    61.570086    162309.73    72.154388    72.154389    35.998834          120    16579.877    17322.878    -35602.18   -1584.7356   -2775.2271    506.36401    72.154388    62.487534    35.998834   -566.47507    -312200.4 
     810     60.44895    162310.33    72.154476    72.154477    35.998877          120     16618.78     17393.59   -35443.552   -1545.1505   -2607.3091    470.46516    72.154476     62.48761    35.998877   -477.06102   -312202.39 
     820    58.910539    162309.49    72.154352    72.154353    35.998816          120    16769.149    17345.014   -34881.703   -1569.2033   -2410.3525    168.03431    72.154352    62.487503    35.998816   -255.84669   -312203.35 
     830    57.843612       162308    72.154131    72.154132    35.998705          120    16984.308    17250.084   -33962.916   -1809.4558   -2163.9904   -190.97927    72.154131    62.487311    35.998705    90.492213    -312205.2 
     840    57.278554    162306.96    72.153977    72.153977    35.998628          120    17383.797    17459.084   -33033.747    -2028.756   -2134.6484   -240.05907    72.153977    62.487178    35.998628    603.04459   -312207.88 
     850    56.674096    162307.75    72.154095    72.154095    35.998687          120    17720.183    17768.885   -32635.824   -2196.0733   -2146.6145   -129.42768    72.154095     62.48728    35.998687    951.08161   -312210.23 
     860    55.686531    162311.18    72.154603    72.154603    35.998941          120    17763.918    17917.218   -33195.492   -2184.5877   -2208.4007   -275.59585    72.154603     62.48772    35.998941    828.54793   -312211.63 
     870    55.323144    162316.66    72.155415    72.155416    35.999346          120    17657.099    17530.635   -34313.865    -2183.984   -2495.1541   -359.01489    72.155415    62.488423    35.999346    291.28978   -312214.17 
     880    54.566993    162322.56    72.156289    72.156289    35.999782          120    17584.765    16978.444   -35097.882   -2206.1874   -2780.2763   -218.88709    72.156289     62.48918    35.999782   -178.22457   -312215.62 
     890    53.715122    162327.57    72.157031    72.157032    36.000152          120    17723.796    16916.346   -35120.022   -1860.7237   -3060.4307   -88.341877    72.157031    62.489823    36.000152   -159.95997   -312216.92 
     900    53.121851    162331.77    72.157654    72.157654    36.000463          120    18034.104    16885.288   -34533.922    -1791.393   -2792.3291     57.72184    72.157654    62.490362    36.000463    128.49021    -312218.6 
     910    52.502352    162336.05    72.158288    72.158288    36.000779          120    18336.128    17099.194   -33805.367   -1918.7946   -2717.0314    106.35376    72.158288    62.490911    36.000779    543.31802   -312220.19 
     920    52.033536    162341.64    72.159116    72.159116    36.001192          120    18515.398    17585.522   -32925.069   -1983.5439   -2852.4537     42.93379    72.159116    62.491628    36.001192    1058.6169   -312221.83 
     930    51.321373    162349.87    72.160335    72.160336    36.001801          120    18817.777    17924.171    -32715.66   -2296.1858   -2899.1763    83.611393    72.160335    62.492684    36.001801    1342.0961   -312222.92 
     940    50.154191    162361.34    72.162034    72.162035    36.002648          120    18881.514    17951.094   -33121.568   -2311.0034   -3045.0842    -31.02202    72.162034    62.494155    36.002648    1237.0134   -312222.77 
     950    49.408709    162375.48    72.164129     72.16413    36.003694          120    18480.942    17668.536   -33733.218   -2036.3697   -2966.9109   -319.88098    72.164129     62.49597    36.003694    805.42001   -312223.69 
     960    49.471945    162390.89    72.166412    72.166412    36.004832          120    18083.723    17187.184   -34410.521   -1970.9135   -2828.0294   -539.70196    72.166412    62.497947    36.004832    286.79543   -312226.05 
     970    49.685016    162405.98    72.168648    72.168648    36.005948          120    17864.488    16771.899   -35082.752   -2138.2031     -2829.91   -414.08639    72.168648    62.499883    36.005948    -148.7885   -312227.87 
     980    49.156926    162419.53    72.170654    72.170655    36.006949          120    17550.981    16589.589   -35216.869   -2134.2428   -3007.5673   -264.32908    72.170654    62.501621    36.006949   -358.76636   -312228.64 
     990     48.82302    162430.99    72.172353    72.172353    36.007796          120    17283.281    16737.455   -35450.539   -2168.8115    -3069.969   -69.271891    72.172353    62.503091    36.007796     -476.601   -312229.53 
    1000    48.239419    162440.17    72.173711    72.173712    36.008474          120    17068.174    16635.602   -35503.697   -2213.6078   -2924.2465     78.40296    72.173711    62.504268    36.008474   -599.97376   -312229.98 
Loop time of 380.371 on 1 procs for 1000 steps with 14848 atoms

Performance: 0.227 ns/day, 105.659 hours/ns, 2.629 timesteps/s
100.0% CPU use with 1 MPI tasks x no OpenMP threads

MPI task timing breakdown:
Section |  min time  |  avg time  |  max time  |%varavg| %total
---------------------------------------------------------------
Pair    | 315.19     | 315.19     | 315.19     |   0.0 | 82.86
Bond    | 0.00053334 | 0.00053334 | 0.00053334 |   0.0 |  0.00
Kspace  | 14.593     | 14.593     | 14.593     |   0.0 |  3.84
Neigh   | 41.539     | 41.539     | 41.539     |   0.0 | 10.92
Comm    | 0.48461    | 0.48461    | 0.48461    |   0.0 |  0.13
Output  | 0.013618   | 0.013618   | 0.013618   |   0.0 |  0.00
Modify  | 8.3722     | 8.3722     | 8.3722     |   0.0 |  2.20
Other   |            | 0.1749     |            |       |  0.05

Nlocal:    14848 ave 14848 max 14848 min
Histogram: 1 0 0 0 0 0 0 0 0 0
Nghost:    46928 ave 46928 max 46928 min
Histogram: 1 0 0 0 0 0 0 0 0 0
Neighs:    1.01309e+07 ave 1.01309e+07 max 1.01309e+07 min
Histogram: 1 0 0 0 0 0 0 0 0 0

Total # of neighbors = 10130885
Ave neighs/atom = 682.306
Ave special neighs/atom = 0
Neighbor list builds = 123
Dangerous builds = 0
PPPM initialization ...
  using 12-bit tables for long-range coulomb (../kspace.cpp:321)
  G vector (1/distance) = 0.202683
  grid = 36 50 24
  stencil order = 5
  estimated absolute RMS force accuracy = 0.000992781
  estimated relative force accuracy = 6.89448e-05
  using double precision FFTs
  3d grid and FFT values/proc = 65395 43200
Setting up Verlet run ...
  Unit style    : metal
  Current step  : 0
  Time step     : 0.001
Per MPI rank memory allocation (min/avg/max) = 152.6 | 152.6 | 152.6 Mbytes
Step Temp Volume Cella Cellb Cellc CellGamma Pxx Pyy Pzz Pxy Pxz Pyz Lx Ly Lz Press PotEng 
       0    48.239419    162440.17    72.173711    72.173712    36.008474          120    17082.708    16650.631    -35493.97   -2213.5465   -2923.9402    78.196734    72.173711    62.504268    36.008474   -586.87714   -312229.77 
      10    48.107726    162446.93    72.174713    72.174714    36.008974          120    16756.823    16808.754   -35142.893   -1971.4938   -2542.5089    94.526712    72.174713    62.505136    36.008974   -525.77206   -312231.03 
      20    47.813199    162451.61    72.175406    72.175407     36.00932          120    16803.236     16748.77   -34996.321   -1650.8714   -2316.5191    180.58877    72.175406    62.505736     36.00932   -481.43825   -312232.02 
      30    47.896923    162454.52    72.175837    72.175837    36.009535          120    17113.932    16376.549   -34752.294   -1519.0959   -2314.8099    285.76841    72.175837    62.506109    36.009535   -420.60437   -312233.11 
      40      47.6399     162455.9    72.176041    72.176042    36.009637          120    17159.438    16214.223   -35005.897   -1552.4025    -2391.987    230.47464    72.176041    62.506286    36.009637   -544.07862   -312233.85 
      50    47.180579    162455.54    72.175988    72.175989     36.00961          120    17067.206    16188.316   -35507.192   -1612.0294   -2586.5542   -34.204342    72.175988     62.50624     36.00961    -750.5568   -312233.84 
      60     46.67207    162452.98    72.175608    72.175609     36.00942          120    17065.405    16070.657   -35924.703   -1661.2628   -2686.4574   -68.495499    72.175608    62.505911     36.00942   -929.54686   -312233.63 
      70    46.136051    162447.91    72.174858    72.174858    36.009046          120     17110.11    16231.159   -35796.803   -1753.4484   -2738.4302   -36.473438    72.174858    62.505261    36.009046   -818.51148   -312233.48 
      80     45.71412    162440.82    72.173808    72.173808    36.008522          120    17358.391    16605.275    -35514.83   -1793.7899   -2941.4797   -109.27924    72.173808    62.504352    36.008522   -517.05469   -312233.64 
      90    46.009073    162432.75    72.172613    72.172613    36.007926          120    17917.664     16800.43   -34925.293   -1793.7264   -3114.0477   -75.043981    72.172613    62.503317    36.007926   -69.066513   -312234.82 
     100    46.165135    162425.04     72.17147    72.171471    36.007356          120    18180.988    17078.289   -34394.305   -1823.5233   -3135.6788    8.9282573     72.17147    62.502327    36.007356    288.32378   -312235.28 
     110    45.933184     162418.7    72.170531    72.170532    36.006887          120    18180.168    17316.036   -34042.693   -2004.4766   -2886.4447    33.097656    72.170531    62.501514    36.006887     484.5034   -312234.95 
     120    45.638128    162414.26    72.169874    72.169875     36.00656          120    18305.466    17452.767   -33748.414   -2288.9205   -2805.3263  -0.57875854    72.169874    62.500945     36.00656    669.93997    -312234.3 
     130    46.182555    162412.05    72.169547    72.169547    36.006396          120    18399.732    17297.336   -33993.156   -2303.8723    -2851.563    209.98181    72.169547    62.500661    36.006396    567.97044   -312235.49 
     140    46.749791    162411.66     72.16949     72.16949    36.006368          120    18147.756    17179.486    -34256.01   -2192.5746   -2826.9821    204.82364     72.16949    62.500612    36.006368    357.07737   -312236.45 
     150    47.066597    162412.34     72.16959     72.16959    36.006418          120    17958.306    17010.355   -34701.886   -1915.3104   -2814.0126   -46.641636     72.16959    62.500699    36.006418    88.925098   -312236.81 
     160    47.504591    162413.28    72.169728    72.169729    36.006487          120    17897.469    16941.791   -34825.734   -1858.1893   -2936.3519   -127.18783    72.169728    62.500819    36.006487    4.5087923    -312237.2 
     170    47.846991    162414.23    72.169869     72.16987    36.006557          120    17806.149    17222.294   -34499.419   -1894.6233    -2837.011   -156.93324    72.169869    62.500941    36.006557    176.34134   -312237.11 
     180    48.231621    162415.64    72.170078    72.170079    36.006662          120    17860.539     17339.06   -34188.785   -1985.8838   -2929.0212   -91.540915    72.170078    62.501122    36.006662    336.93788   -312237.37 
     190    48.336398     162417.9    72.170413    72.170414    36.006829          120    17857.891    17305.686   -34290.598   -2147.6273      -3102.3   -224.29039    72.170413    62.501412    36.006829    290.99329   -312236.79 
     200    48.651431    162420.87    72.170853    72.170854    36.007048          120    17670.795    17208.727    -34196.19   -1961.2932   -2972.9596   -311.88245    72.170853    62.501793    36.007048    227.77741   -312236.57 
     210    48.593342    162424.29     72.17136    72.171361    36.007301          120    17458.201    16936.772   -34084.061   -1805.5314   -3141.3852    -170.9693     72.17136    62.502232    36.007301     103.6375   -312235.32 
     220    48.133931     162427.8     72.17188     72.17188     36.00756          120    17417.549    16887.244   -34323.022   -1706.3978   -3102.3439   -20.343912     72.17188    62.502682     36.00756   -6.0763546   -312233.58 
     230     48.67959    162431.07    72.172363    72.172364    36.007802          120    17480.517    16891.874   -34699.087    -1759.935    -2861.752   -178.57519    72.172363    62.503101    36.007802   -108.89874   -312233.54 
     240    49.640428    162433.77    72.172763    72.172764    36.008001          120    17470.323    16927.371   -35145.689   -1946.1603   -2919.4125   -277.47691    72.172763    62.503447    36.008001   -249.33193   -312234.52 
     250    49.918921    162435.56    72.173029     72.17303    36.008134          120    17379.468    17083.078   -35379.201    -1932.566   -2980.2681   -148.33785    72.173029    62.503677    36.008134   -305.55186   -312234.17 
     260    49.806364    162436.33    72.173144    72.173144    36.008191          120    17321.812    17221.825   -35347.731    -1825.468   -3029.8902    2.5726768    72.173144    62.503776    36.008191   -268.03132   -312232.68 
     270    49.941335    162436.36    72.173148    72.173148    36.008193          120    17779.157    17579.647   -34960.956   -1744.4895   -2976.1295   -14.802127    72.173148     62.50378    36.008193    132.61598   -312231.83 
     280    50.778079    162436.73    72.173202    72.173203     36.00822          120    18083.928     17890.36   -34725.137   -1537.1514    -2693.665   -162.06456    72.173202    62.503827     36.00822    416.38371   -312232.51 
     290    50.774429    162438.29    72.173433    72.173434    36.008335          120    18268.995    17823.828   -34296.755   -1616.2814   -2587.8438   -158.71708    72.173433    62.504027    36.008335    598.68925    -312231.4 
     300    50.991462    162441.49    72.173907    72.173907    36.008572          120    18398.164    17592.223   -34239.945   -1930.7315   -2537.0801   -235.88403    72.173907    62.504437    36.008572    583.48073   -312230.97 
     310    51.363996    162446.16    72.174599    72.174599    36.008917          120    18316.183    17291.967   -34485.332   -2000.0419   -2584.4519   -148.90087    72.174599    62.505037    36.008917    374.27254   -312230.86 
     320    51.680141    162451.64     72.17541    72.175411    36.009322          120    18103.536    17026.226   -34658.335   -1797.6513   -2513.8079   -227.33848     72.17541     62.50574    36.009322    157.14234   -312230.59 
     330    52.121069    162457.23    72.176238    72.176239    36.009735          120    18051.163     16878.02   -34991.139   -1679.0843   -2546.3124   -510.17712    72.176238    62.506457    36.009735   -20.652012   -312230.73 
     340    52.803997    162462.43    72.177008    72.177009    36.010119          120    17838.206    16979.324   -35048.165   -1569.4872   -2899.1921   -525.74544    72.177008    62.507123    36.010119   -76.878378   -312231.66 
     350    52.307896    162467.04    72.177691    72.177692     36.01046          120    17773.438     16969.55   -35171.463   -1485.8435   -3207.7699   -461.17541    72.177691    62.507715     36.01046   -142.82509   -312230.13 
     360    52.650326    162470.97    72.178272    72.178273     36.01075          120    17868.525    16906.244   -34966.393   -1548.3858   -3171.2833   -558.09812    72.178272    62.508218     36.01075   -63.874644   -312230.45 
     370    52.581086    162474.51    72.178797    72.178798    36.011012          120    18052.116    17192.047   -34502.149   -1547.5583   -2899.2515   -763.98376    72.178797    62.508673    36.011012    247.33776   -312229.64 
     380     52.40639    162478.55    72.179396    72.179396     36.01131          120    18190.361    17510.681   -34084.984   -1588.3768   -2763.9279   -991.23715    72.179396    62.509191     36.01131    538.68592   -312228.99 
     390    52.600769    162483.95    72.180194    72.180195    36.011709          120    18303.543    17777.279   -33790.025   -1650.9807   -2647.5429   -1273.9962    72.180194    62.509883    36.011709    763.59912   -312229.31 
     400    53.153637    162491.17    72.181265    72.181265    36.012243          120    18197.554    17725.244   -34080.219   -1621.6232   -2485.2938   -1127.8197    72.181265     62.51081    36.012243     614.1931   -312230.26 
     410    53.569301    162499.74    72.182533    72.182534    36.012876          120    17646.798     17575.84   -34297.833    -1701.623   -2444.9603   -910.26291    72.182533    62.511908    36.012876    308.26838   -312230.97 
     420    53.355172    162508.69    72.183858    72.183859    36.013536          120    17363.904     17242.25   -34526.003    -1815.399   -2417.5419   -801.05757    72.183858    62.513055    36.013536    26.716797   -312230.64 
     430    53.208862    162517.17    72.185113    72.185114    36.014163          120    17469.675    16927.131   -34850.108   -1830.3643   -2589.9158   -548.79091    72.185113    62.514143    36.014163   -151.10058   -312231.13 
     440    52.919255    162524.69    72.186227    72.186227    36.014718          120    17594.274    16700.321   -34923.301   -1688.1546   -2667.9049   -591.15552    72.186227    62.515107    36.014718   -209.56854   -312231.04 
     450    52.228842     162531.1    72.187177    72.187177    36.015192          120    17504.619    16525.177   -34812.706   -1672.0296    -2641.007   -705.07866    72.187177    62.515929    36.015192    -260.9699   -312229.95 
     460    52.712404    162536.39    72.187959    72.187959    36.015582          120    17475.895    16716.611   -34583.075    -1689.881   -2516.3244   -841.64316    72.187959    62.516607    36.015582   -130.18972   -312231.51 
     470    52.490213    162540.95    72.188635    72.188635     36.01592          120    17446.086    17061.554   -34473.264   -1601.0006   -2457.5386   -991.53528    72.188635    62.517192     36.01592    11.458627   -312231.86 
     480    52.911607    162545.23    72.189267    72.189268    36.016235          120    17153.803    17148.211   -34341.344   -1529.5202   -2403.4277   -885.91701    72.189267     62.51774    36.016235   -13.110227   -312233.43 
     490    52.562189    162549.19    72.189853    72.189854    36.016528          120    17122.889    16924.686   -34391.526   -1364.9564    -2436.397   -783.92537    72.189853    62.518248    36.016528   -114.65046   -312233.86 
     500    52.100689    162552.57    72.190355    72.190355    36.016778          120    17208.764    16936.786   -34541.319   -1507.2147   -2406.7596   -631.96757    72.190355    62.518682    36.016778   -131.92276   -312234.02 
     510    51.818935    162555.39    72.190772    72.190772    36.016986          120    17451.997     17178.34    -34742.85   -1546.3923   -2389.0666   -552.00826    72.190772    62.519043    36.016986   -37.504314   -312234.55 
     520    51.337764    162557.85    72.191136    72.191137    36.017168          120    17316.186    17208.654   -35078.531   -1450.2021   -2520.1532   -549.74883    72.191136    62.519359    36.017168   -184.56369   -312234.82 
     530    51.276802    162559.59    72.191394    72.191394    36.017296          120     16969.62    17169.154   -35287.191   -1498.3654   -2482.4803    -438.6886    72.191394    62.519582    36.017296   -382.80559   -312235.94 
     540    50.819555    162560.14    72.191474    72.191475    36.017336          120    17064.117    17084.268   -35219.688    -1629.655   -2564.3754   -681.61518    72.191474    62.519651    36.017336   -357.10088   -312235.96 
     550    50.323775    162559.58    72.191392    72.191392    36.017295          120    17180.214    17135.818   -35111.417   -1806.0609   -2636.5146   -1165.3203    72.191392     62.51958    36.017295   -265.12816   -312236.26 
     560    49.961467    162558.29    72.191201    72.191202      36.0172          120    17413.576    17251.116   -34798.487   -1857.9611   -2556.4764   -1076.9696    72.191201    62.519415      36.0172   -44.598663   -312236.81 
     570    49.362779    162556.98    72.191007    72.191008    36.017103          120    17717.265    17557.379   -34381.771   -1850.6869   -2545.5546   -1082.9082    72.191007    62.519247    36.017103    297.62449   -312236.99 
     580    49.706173    162556.59     72.19095     72.19095    36.017075          120    17924.144    17819.398    -34341.33   -1911.1173   -2432.7772   -1027.5088     72.19095    62.519197    36.017075     467.4039   -312238.81 
     590    49.618759    162557.56    72.191093    72.191093    36.017146          120    17786.373    17786.242   -34507.032   -1859.6952   -2278.2982   -661.32121    72.191093    62.519321    36.017146     355.1943   -312239.87 
     600    49.201821    162559.47    72.191375    72.191376    36.017287          120    17448.351    17532.649   -34865.035   -1778.4685   -2468.2767   -537.45788    72.191375    62.519566    36.017287    38.654763   -312240.04 
     610    48.744037     162561.4    72.191662    72.191662     36.01743          120    17365.283    17269.937    -35152.39   -1674.3688   -2677.4601    -506.5909    72.191662    62.519814     36.01743   -172.38989   -312239.93 
     620    48.861484    162562.76    72.191863    72.191864     36.01753          120    17593.601    17365.747   -35337.244   -1580.5379   -2735.8461   -708.72114    72.191863    62.519988     36.01753   -125.96544   -312241.02 
     630    48.491023    162563.71    72.192004    72.192004      36.0176          120    17907.814    17364.514   -34998.772   -1695.0573   -2544.4842   -979.81152    72.192004     62.52011      36.0176    91.185136   -312241.43 
     640    48.112792    162564.87    72.192175    72.192176    36.017686          120    18000.621    17301.808   -34476.454   -1827.5357   -2316.0383   -970.95551    72.192175    62.520258    36.017686     275.3249   -312241.54 
     650    47.898083    162566.77    72.192457    72.192457    36.017827          120    17885.095    17475.704   -34167.537   -1787.3576   -2237.6083   -871.72533    72.192457    62.520502    36.017827    397.75408   -312241.98 
     660     47.69237    162569.73    72.192894    72.192895    36.018045          120     17842.37    17517.401   -34227.577    -1929.057   -2296.9322   -870.64774    72.192894    62.520881    36.018045    377.39826   -312241.84 
     670     47.75347    162573.59    72.193466    72.193467     36.01833          120    17725.432    17383.119   -34501.523   -2019.8228   -2264.6174   -884.60663    72.193466    62.521376     36.01833    202.34258   -312242.57 
     680    47.773859    162577.89    72.194103    72.194104    36.018648          120    17721.839    17387.896   -34566.032   -1936.2941   -2137.1571   -857.31728    72.194103    62.521928    36.018648    181.23415   -312243.19 
     690    47.598264    162582.42    72.194773    72.194773    36.018982          120    17525.432    17311.409   -35028.747   -1918.7418   -2103.8237   -747.54269    72.194773    62.522508    36.018982   -63.968437   -312243.05 
     700    47.706816    162586.45    72.195369     72.19537    36.019279          120    17128.805    16945.377   -35383.821   -1967.1434   -2025.6147   -414.79845    72.195369    62.523024    36.019279   -436.54626   -312244.05 
     710    47.977784    162588.96    72.195741    72.195742    36.019465          120    16673.005    16791.453   -35499.376   -2066.6586   -2186.3206   -409.76595    72.195741    62.523347    36.019465   -678.30579   -312244.93 
     720    47.994909    162589.35    72.195799      72.1958    36.019494          120    16591.321    16678.437   -35257.442    -2000.348   -2187.6293    -651.3073    72.195799    62.523397    36.019494   -662.56128   -312245.37 
     730    47.331883    162587.76    72.195563    72.195564    36.019376          120     16768.76     16620.37   -34947.515   -1848.7251   -2177.6873   -604.98037    72.195563    62.523193    36.019376   -519.46155   -312244.16 
     740    47.131134    162584.65    72.195103    72.195104    36.019147          120    16942.021    16536.204   -35026.827   -1939.1751   -2071.4707   -560.60553    72.195103    62.522794    36.019147    -516.2007      -312244 
     750     47.56121    162580.17     72.19444     72.19444    36.018816          120    16989.999    16348.374     -35029.6   -1841.2829   -2140.8487   -669.82071     72.19444    62.522219    36.018816   -563.74243   -312244.85 
     760    48.014373     162574.2    72.193557    72.193557    36.018375          120    16998.762    16035.145   -35270.458   -1707.0057   -2323.2464   -794.19111    72.193557    62.521455    36.018375   -745.51705   -312245.63 
     770    47.794106    162566.37    72.192397    72.192397    36.017797          120    17038.556    16119.412   -35500.042    -1693.439   -2266.6192   -760.36455    72.192397     62.52045    36.017797   -780.69123   -312244.68 
     780    47.661113    162556.65    72.190958    72.190959    36.017079          120    16977.678    16441.682   -35512.105   -1655.9921   -2216.5748   -623.94908    72.190958    62.519205    36.017079   -697.58134   -312244.29 
     790    48.100276    162545.36    72.189287    72.189288    36.016245          120    16773.197    16588.086   -35360.063   -1605.6836   -2299.1748   -792.41218    72.189287    62.517757    36.016245   -666.26006   -312244.81 
     800    48.275938    162532.78    72.187424    72.187425    36.015316          120    16917.454     16890.71   -34923.365    -1691.183    -2266.697   -927.78074    72.187424    62.516144    36.015316   -371.73385   -312244.53 
     810    48.388312    162519.85    72.185511    72.185511    36.014361          120    17521.014    17477.753   -34486.087   -1737.1146   -2357.4744   -985.25751    72.185511    62.514487    36.014361    170.89333   -312244.16 
     820    48.772035    162508.14    72.183776    72.183777    36.013496          120    18307.762    17709.071   -34074.908   -1683.4371   -2553.6243   -979.55732    72.183776    62.512985    36.013496    647.30873   -312243.82 
     830    48.878328    162498.97     72.18242     72.18242    36.012819          120    18685.408    17827.913   -33678.426   -1850.6434   -2567.1148   -771.05667     72.18242     62.51181    36.012819    944.96523   -312243.45 
     840    48.789404    162493.09    72.181548    72.181549    36.012384          120    18519.881    18044.945   -33596.404   -1833.0865   -2493.1778   -769.79164    72.181548    62.511055    36.012384     989.4737    -312242.4 
     850    48.649119    162490.47    72.181161    72.181161    36.012191          120    18416.098    18143.082   -33847.697   -1858.4507   -2492.2356   -985.00732    72.181161    62.510719    36.012191    903.82745   -312241.51 
     860    48.992281     162490.7    72.181194    72.181195    36.012207          120    18178.419    18342.726   -34083.607   -2002.2736   -2431.8932   -1127.6678    72.181194    62.510749    36.012207    812.51273    -312241.6 
     870     49.53013    162493.35    72.181587    72.181587    36.012403          120    17992.433    18285.672   -34119.853   -1959.0821   -2361.4627   -1187.0275    72.181587    62.511088    36.012403    719.41765   -312241.99 
     880    49.589786    162497.99    72.182273    72.182274    36.012746          120    17976.127    18116.059   -34403.549   -1877.7476   -2496.4222   -1235.5043    72.182273    62.511683    36.012746    562.87885   -312241.39 
     890    50.209502    162504.12    72.183182    72.183182    36.013199          120    18056.901    18275.939   -34531.548   -1962.9731   -2726.1005    -1320.361    72.183182     62.51247    36.013199    600.43067    -312241.5 
     900    50.469136     162511.7    72.184303    72.184304    36.013759          120    18028.816    18167.039   -34388.897   -2063.0573   -2975.8869   -1371.1087    72.184303    62.513441    36.013759    602.31923   -312240.84 
     910    50.807714    162520.67    72.185631    72.185632    36.014421          120    17956.869    18247.631   -34431.737   -2157.1587   -2763.1844   -1117.8425    72.185631    62.514591    36.014421    590.92123   -312240.79 
     920    50.726771    162530.93     72.18715    72.187151    36.015179          120    17922.707    18192.273   -34382.977   -2125.8096   -2454.6959   -828.33183     72.18715    62.515907    36.015179    577.33433   -312239.81 
     930    50.774621    162542.35    72.188842    72.188842    36.016023          120    17869.565    18072.342   -34470.935   -1946.2564   -2112.4461   -857.28548    72.188842    62.517372    36.016023    490.32408   -312238.96 
     940    50.838024    162554.58    72.190653    72.190653    36.016926          120    17554.279    17763.071   -34680.885   -1756.9343   -2075.2419   -1006.5181    72.190653     62.51894    36.016926    212.15491   -312238.12 
     950    51.356961    162566.77    72.192456    72.192457    36.017826          120    17436.518    17233.563   -35041.766   -1832.0496    -2307.597   -1049.2411    72.192456    62.520502    36.017826   -123.89504   -312238.32 
     960    51.303078    162577.97    72.194114    72.194114    36.018653          120     17518.27    16761.268   -35264.087   -1875.3132   -2321.2593   -936.21935    72.194114    62.521937    36.018653   -328.18321   -312237.52 
     970    51.603551     162587.6     72.19554     72.19554    36.019365          120    17471.405    16667.697   -35422.771   -1749.7262   -2325.3176   -1097.9742     72.19554    62.523172    36.019365   -427.88938   -312237.31 
     980    51.406375    162595.47    72.196705    72.196706    36.019946          120    17328.637    16777.401   -35294.289   -1579.8117   -2345.8027   -968.49544    72.196705    62.524181    36.019946   -396.08336   -312236.21 
     990    51.748709     162601.7    72.197626    72.197627    36.020406          120    17194.733    16628.094   -35307.499    -1681.684   -2544.4119   -800.03248    72.197626    62.524979    36.020406   -494.89057   -312236.17 
    1000    51.802117    162606.08    72.198275    72.198276     36.02073          120    17395.122    16378.207    -35644.37   -1845.6035   -2563.4236   -730.69291    72.198275    62.525541     36.02073   -623.68067   -312235.74 
    1010    52.451477    162608.41    72.198619     72.19862    36.020901          120    17424.867    16477.058   -35601.184   -1843.3042   -2595.7998   -470.55788    72.198619    62.525839    36.020901   -566.41993   -312236.89 
    1020    52.300548    162608.88    72.198689     72.19869    36.020936          120    17345.551    16677.589   -35678.779   -1857.9712    -2301.997   -476.88184    72.198689    62.525899    36.020936   -551.87968   -312236.63 
    1030    51.834237    162607.67     72.19851    72.198511    36.020847          120    17303.988    16616.262    -35447.86    -1683.222   -2163.5674   -574.31033     72.19851    62.525744    36.020847   -509.20327   -312235.71 
    1040    51.922198       162605    72.198115    72.198115    36.020649          120    17341.661      16862.8    -35347.91   -1602.9027   -2114.6408   -638.55896    72.198115    62.525402    36.020649   -381.14967   -312235.96 
    1050    52.306551    162601.32    72.197571    72.197571    36.020378          120    17384.689    17004.897   -35092.916   -1560.6367   -2006.9837   -651.91085    72.197571    62.524931    36.020378   -234.44349   -312236.57 
    1060    52.338538     162597.1    72.196945    72.196946    36.020066          120    17435.727    17038.725   -34975.877   -1658.7653   -2134.7816   -604.22428    72.196945    62.524389    36.020066   -167.14138   -312236.66 
    1070    52.364869    162592.62    72.196283    72.196284    36.019736          120    17719.868    17229.568   -34856.501   -1787.9996   -2202.2486   -585.63259    72.196283    62.523816    36.019736    30.978448   -312236.87 
    1080    52.044292     162588.5    72.195674    72.195674    36.019431          120     17935.88    17663.323   -34667.032   -2005.4136   -2196.5877   -533.06137    72.195674    62.523288    36.019431    310.72384   -312236.74 
    1090    51.970443    162585.47    72.195224    72.195224    36.019207          120    18041.446    17763.904   -34740.667    -2235.371   -2274.6875   -548.38035    72.195224    62.522899    36.019207    354.89441   -312237.01 
    1100    51.784149    162583.64    72.194953    72.194954    36.019072          120    17975.232    17981.432   -34935.591   -2241.1068   -2195.6088   -505.14996    72.194953    62.522664    36.019072    340.35769   -312237.15 
    1110    51.537948    162582.96    72.194853    72.194853    36.019022          120     17976.06    18097.679   -34875.606   -2111.5137   -2349.4807   -354.44962    72.194853    62.522577    36.019022    399.37756   -312237.11 
    1120    51.329463    162583.49    72.194931    72.194932    36.019061          120    17846.628    18172.946   -34794.076   -2036.7926   -2299.3177   -524.52854    72.194931    62.522645    36.019061    408.49916   -312237.37 
    1130    51.537896    162585.23     72.19519     72.19519     36.01919          120    17711.617    18186.389   -34585.945   -1924.9123   -2210.2118   -803.32418     72.19519    62.522869     36.01919    437.35347   -312238.34 
    1140     51.83064    162588.15    72.195622    72.195622    36.019406          120    17496.148    17850.718   -34478.183   -1632.0527   -2066.1899   -989.46012    72.195622    62.523243    36.019406    289.56108   -312239.66 
    1150    51.410199    162591.79    72.196161    72.196161    36.019674          120    17399.326    17563.253   -34610.634   -1565.3951   -2013.8055   -784.95781    72.196161     62.52371    36.019674    117.31521   -312239.36 
    1160    51.230008    162595.61    72.196726    72.196726    36.019956          120    17273.034      17408.6   -34747.143   -1559.5606   -2303.3669   -758.67277    72.196726    62.524199    36.019956   -21.836555   -312239.64 
    1170     50.75581    162599.14    72.197248    72.197248    36.020217          120     16982.39    17417.723   -35012.189   -1468.8959   -2491.2247   -827.62494    72.197248    62.524651    36.020217   -204.02541   -312239.33 
    1180    50.236321    162601.91    72.197657    72.197658    36.020421          120    16971.754    17358.462   -35047.591   -1412.2228   -2488.3646   -795.49564    72.197657    62.525006    36.020421   -239.12522    -312239.2 
    1190    50.312557    162603.81     72.19794     72.19794    36.020562          120    17178.558    17394.556   -35175.039   -1427.6378   -2161.7892   -736.19916     72.19794    62.525251    36.020562    -200.6417   -312240.34 
    1200    50.312616    162605.02    72.198117    72.198118    36.020651          120    17277.362    17407.493   -35268.282   -1476.4156    -2238.067   -590.97743    72.198117    62.525404    36.020651   -194.47581   -312241.08 
    1210    49.955251    162605.52    72.198192    72.198193    36.020688          120    17230.157    17153.206    -35383.08   -1556.1579   -2028.4541   -709.48067    72.198192    62.525469    36.020688   -333.23897   -312241.32 
    1220    49.805415    162605.01    72.198117    72.198117     36.02065          120    17355.201    16672.429   -35192.915     -1764.48   -1847.2759   -632.37328    72.198117    62.525404     36.02065   -388.42814   -312241.81 
    1230    49.826616    162603.44    72.197884    72.197885    36.020534          120     17400.66    16945.092   -34796.046   -1827.6315    -1922.737   -582.84806    72.197884    62.525203    36.020534   -150.09785   -312242.45 
    1240    49.507717    162601.47    72.197593    72.197593    36.020389          120     17253.36     17359.63   -34608.841   -1787.2579   -1938.0818   -631.96521    72.197593     62.52495    36.020389    1.3828412   -312242.63 
    1250    49.390795    162599.51    72.197303    72.197303    36.020244          120    17419.029    16984.379   -34805.864   -1803.2724   -2168.8052   -555.49786    72.197303    62.524699    36.020244   -134.15201   -312243.17 
    1260    48.430359    162597.26    72.196969     72.19697    36.020078          120    17502.425     16817.19   -34975.678    -1868.681   -2483.1447   -697.87838    72.196969     62.52441    36.020078   -218.68767   -312242.22 
    1270    48.644624    162594.46    72.196556    72.196556    36.019872          120    17672.372    16596.554   -35077.187   -1821.8117   -2715.0568   -1074.4096    72.196556    62.524052    36.019872   -269.42033   -312243.55 
    1280    48.839486    162590.98     72.19604    72.196041    36.019614          120    17611.453    16574.465   -35276.601   -1829.2481    -2470.554   -852.49506     72.19604    62.523605    36.019614   -363.56116    -312244.5 
    1290    48.606009    162586.58    72.195389     72.19539     36.01929          120    17202.544    16956.154   -35354.558   -1789.7546   -2456.0484   -575.77676    72.195389    62.523042     36.01929   -398.61976   -312244.74 
    1300    48.076074    162581.24    72.194598    72.194599    36.018895          120    17077.381    17238.355   -35186.851   -1599.8635   -2400.7232   -584.57264    72.194598    62.522357    36.018895   -290.37182   -312244.36 
    1310    48.315445     162575.3    72.193719    72.193719    36.018456          120    17252.311    17355.468   -34963.929   -1722.3551   -2308.2884   -866.48308    72.193719    62.521595    36.018456   -118.71652   -312245.34 
    1320    48.480916    162569.29    72.192829     72.19283    36.018012          120    17452.923    17314.458   -34729.172   -1745.7789   -2391.5424    -1120.487    72.192829    62.520825    36.018012    12.736623   -312246.28 
    1330    48.644401    162563.54    72.191978    72.191978    36.017588          120    17391.434    16874.744   -34521.348   -1759.2836   -2399.0528   -1145.7389    72.191978    62.520087    36.017588   -85.056804   -312247.05 
    1340    47.758377    162557.85    72.191136    72.191137    36.017168          120    17526.665    16602.454   -34274.256   -1869.2804    -2600.653   -933.12071    72.191136    62.519359    36.017168   -48.378841   -312245.64 
    1350     47.96861    162552.31    72.190316    72.190317    36.016758          120    17506.252     16911.67   -34268.122   -1754.6861   -2717.4726   -688.54954    72.190316    62.518648    36.016758    49.933441   -312246.08 
    1360    48.392282    162547.16    72.189554    72.189555    36.016378          120    17330.251    17186.263    -34333.53   -1665.7724   -2881.7878   -653.78217    72.189554    62.517988    36.016378    60.994582   -312246.92 
    1370    47.918285    162542.42    72.188852    72.188852    36.016028          120    17320.609    17153.688   -34551.284   -1718.4469   -3005.1198   -646.08131    72.188852     62.51738    36.016028   -25.662514    -312245.8 
    1380    47.660734    162537.83    72.188173    72.188173    36.015689          120    17464.796    17087.457   -34771.228   -1805.4484   -2872.6966   -678.49677    72.188173    62.516792    36.015689   -72.991564   -312245.34 
    1390    48.047771    162533.27    72.187497    72.187498    36.015352          120    17508.838     16997.94   -34601.577   -1616.7889   -2617.7514   -496.01465    72.187497    62.516207    36.015352   -31.599643   -312246.22 
    1400    48.250298    162528.76     72.18683    72.186831    36.015019          120    17209.262    16793.781   -34631.349   -1636.9805    -2424.783   -716.77668     72.18683    62.515629    36.015019   -209.43549   -312246.47 
    1410    48.223041    162523.89    72.186109     72.18611     36.01466          120    17106.876    16966.613   -34733.311   -1717.6999   -2535.6868   -994.42084    72.186109    62.515005     36.01466   -219.94048   -312246.28 
    1420    48.354613    162518.68    72.185337    72.185337    36.014274          120      17383.1    17293.814   -34498.874   -1675.1777   -2593.5651   -1086.0503    72.185337    62.514336    36.014274    59.346483   -312245.84 
    1430    48.773725    162513.91    72.184632    72.184632    36.013922          120    17601.448    17585.079    -33872.68   -1646.5072   -2491.4535   -1283.5432    72.184632    62.513725    36.013922    437.94913   -312246.35 
    1440    48.763064    162510.69    72.184154    72.184155    36.013684          120    17846.041    17818.117   -33342.398   -1625.7115   -2408.4583   -1114.7411    72.184154    62.513312    36.013684    773.92013   -312246.14 
    1450    48.982612    162509.88    72.184034    72.184035    36.013624          120    18130.911    17835.943   -33514.863   -1453.7719   -2453.9877   -971.11099    72.184034    62.513208    36.013624    817.33043   -312246.06 
    1460    49.057423    162511.49    72.184272    72.184273    36.013743          120    18157.918    17749.722   -34276.887   -1283.9948     -2501.75   -847.67462    72.184272    62.513414    36.013743    543.58443   -312245.77 
    1470    49.250392    162514.65    72.184741    72.184742    36.013977          120    17803.194    17537.974   -34547.201   -1449.7025   -2418.5362   -621.63205    72.184741     62.51382    36.013977    264.65559   -312245.52 
    1480    49.192541    162518.53    72.185315    72.185316    36.014263          120    17577.292    17583.784    -34519.89   -1528.7896   -2467.8365   -482.20774    72.185315    62.514317    36.014263    213.72882   -312244.76 
    1490    49.192327     162522.9    72.185961    72.185962    36.014586          120    17698.815    17844.067    -34637.04   -1672.1102   -2184.8365   -544.26184    72.185961    62.514877    36.014586    301.94723   -312244.12 
    1500    49.908127    162527.98    72.186714    72.186715    36.014961          120    17884.691    18091.543   -34667.936   -1964.1213   -2145.0203   -417.58469    72.186714    62.515529    36.014961    436.09912   -312244.67 
    1510    49.930764    162534.11    72.187621    72.187622    36.015414          120    18054.372    17994.868   -34621.345   -1928.5401   -2410.0915   -446.49948    72.187621    62.516315    36.015414    475.96505   -312243.67 
    1520    50.072389    162541.36    72.188696    72.188696     36.01595          120    18227.808     17824.56    -34642.67   -1992.6614   -2417.1555    -687.1698    72.188696    62.517245     36.01595    469.89907   -312243.55 
    1530    49.673067     162549.7    72.189929     72.18993    36.016565          120    18237.043    17691.859   -34616.837   -2132.5906   -2507.5177   -757.34682    72.189929    62.518313    36.016565    437.35523   -312242.13 
    1540    50.477914    162558.93    72.191296    72.191297    36.017247          120    18103.376    17544.861   -34739.058   -2212.9684   -2213.2529   -858.25851    72.191296    62.519497    36.017247    303.05974    -312243.2 
    1550    50.338046    162568.64    72.192734    72.192735    36.017965          120    17761.912    17389.931   -34780.437    -2126.277   -2410.2797   -1088.7862    72.192734    62.520742    36.017965      123.802   -312242.31 
    1560    50.730074    162578.27    72.194159     72.19416    36.018676          120    17648.371    17158.503    -34995.95   -2091.5127    -2591.921   -987.95971    72.194159    62.521977    36.018676   -63.025403   -312242.43 
    1570    50.392821    162587.29    72.195494    72.195495    36.019342          120    17636.948    17204.482   -35366.887   -1983.7329   -2586.9323   -685.82323    72.195494    62.523133    36.019342   -175.15247   -312240.82 
    1580    51.090671    162595.35    72.196687    72.196688    36.019937          120     17613.65    16966.065   -35398.176    -1835.466   -2699.0327   -509.78339    72.196687    62.524166    36.019937   -272.82002    -312241.7 
    1590     51.45527    162602.24    72.197706    72.197707    36.020445          120    17615.933    16719.863   -35188.092   -1733.9131   -2563.0512   -597.67782    72.197706    62.525048    36.020445   -284.09898   -312241.91 
    1600    51.275632    162607.88    72.198541    72.198542    36.020862          120    17649.143    16630.558   -35643.102   -1822.9634   -2317.0991   -961.29852    72.198541    62.525771    36.020862   -454.46711   -312241.11 
    1610    50.994745    162611.95    72.199143    72.199144    36.021162          120    17688.713    16862.779   -35756.175   -1683.8916   -2446.7236   -988.26523    72.199143    62.526293    36.021162   -401.56091    -312240.2 
    1620    50.895401    162614.62    72.199539    72.199539     36.02136          120    17701.049    16822.913   -35387.285   -1517.5423   -2666.8926    -1007.351    72.199539    62.526635     36.02136   -287.77439   -312239.48 
    1630    51.171131    162616.31    72.199789     72.19979    36.021485          120    17778.305    16986.145   -35139.825   -1534.7336    -2668.718   -1240.2903    72.199789    62.526852    36.021485   -125.12505    -312239.4 
    1640    51.831687    162617.57    72.199976    72.199977    36.021578          120    17758.097    17298.453   -34794.858   -1639.0156   -2703.1961   -1331.4403    72.199976    62.527014    36.021578    87.230776   -312240.53 
    1650    51.919072    162618.91    72.200174    72.200174    36.021677          120    17502.808    17456.111   -35303.779   -1905.9752   -2725.9627   -1325.5961    72.200174    62.527185    36.021677   -114.95312   -312240.85 
    1660     52.10513     162619.8    72.200306    72.200306    36.021743          120    17251.803    17240.043   -35795.185   -2163.7062   -2856.4695   -1169.1727    72.200306      62.5273    36.021743   -434.44642   -312241.04 
    1670    52.278203    162619.41    72.200248    72.200249    36.021714          120    17172.833    17134.839   -35747.267   -2270.9095     -2735.05   -975.75139    72.200248     62.52725    36.021714   -479.86503   -312241.37 
    1680    51.937664    162617.62    72.199982    72.199983    36.021581          120    17387.755    17229.834   -35733.799   -1993.4248   -2517.5951   -850.88649    72.199982    62.527019    36.021581   -372.06999   -312240.72 
    1690    51.846244    162614.82    72.199568    72.199569    36.021374          120    17552.417    17586.082   -35351.036   -1696.1632   -2341.0261   -687.53261    72.199568    62.526661    36.021374   -70.845619   -312240.42 
    1700    51.408304       162612     72.19915    72.199151    36.021166          120    17997.407    17872.961   -34635.699    -1485.958   -2446.6545   -429.26333     72.19915    62.526299    36.021166    411.55604   -312239.54 
    1710    51.562001    162610.46    72.198923    72.198924    36.021053          120    18461.479    17751.307   -34410.815   -1455.1623   -2478.7582   -521.43751    72.198923    62.526102    36.021053    600.65716   -312240.28 
    1720    51.444049    162610.76    72.198968    72.198968    36.021075          120    18347.401    17757.662   -34447.651   -1639.2281    -2292.766   -675.93481    72.198968    62.526141    36.021075     552.4707   -312240.22 
    1730    51.258194    162612.66    72.199249    72.199249    36.021215          120    17906.414     17657.81   -34634.277   -1853.4697   -2448.2728   -707.67559    72.199249    62.526384    36.021215    309.98244   -312239.95 
    1740    51.728823    162615.43    72.199659    72.199659     36.02142          120    17696.134    17749.956   -34988.697   -1815.4657   -2567.5638   -861.42682    72.199659    62.526739     36.02142    152.46447   -312241.42 
    1750    51.490928    162618.54    72.200119     72.20012    36.021649          120    17697.618    17597.839   -35220.712    -1621.061    -2424.687   -847.02282    72.200119    62.527138    36.021649    24.915157   -312241.96 
    1760    50.758523    162621.59     72.20057    72.200571    36.021874          120    17660.302    17586.621   -35378.846   -1489.7987   -2440.7895   -907.97981     72.20057    62.527528    36.021874   -43.974356   -312240.75 
    1770    50.778596    162624.45    72.200994    72.200994    36.022086          120    18012.582    17532.625    -34902.54   -1372.9522   -2566.3833   -851.12076    72.200994    62.527895    36.022086    214.22225   -312241.43 
    1780    51.121954    162627.83    72.201493    72.201494    36.022335          120    18192.046    17397.043   -34267.141   -1250.1222    -2302.904   -666.84271    72.201493    62.528328    36.022335    440.64964   -312242.14 
    1790    51.068415    162632.27    72.202151    72.202152    36.022663          120    17775.732    17288.993   -34244.018   -1387.1454   -2606.4965   -635.55765    72.202151    62.528898    36.022663     273.5691   -312242.75 
    1800    50.427544    162637.31    72.202897    72.202898    36.023035          120    17410.716    17198.928   -34677.432   -1478.9747   -2772.2933   -754.40653    72.202897    62.529544    36.023035   -22.596067   -312242.23 
    1810    50.420776    162642.08    72.203603    72.203604    36.023388          120    17120.474    17104.692   -34935.826    -1585.765   -2533.0579    -754.6707    72.203603    62.530155    36.023388    -236.8866   -312242.47 
    1820    50.177989    162645.92    72.204171    72.204171    36.023671          120    16954.547    16975.479   -35158.662   -1723.9142   -2434.1945   -674.09573    72.204171    62.530647    36.023671   -409.54514   -312242.56 
    1830    50.006978    162648.37    72.204534    72.204534    36.023852          120    17110.162    17007.671   -35467.995   -1739.5462   -2478.4419   -700.66566    72.204534    62.530961    36.023852    -450.0538   -312242.94 
    1840    49.717466    162649.37    72.204681    72.204682    36.023925          120    17214.625    17247.896   -35694.798   -1714.6387   -2559.1941   -759.62583    72.204681    62.531089    36.023925   -410.75895   -312243.21 
    1850    48.987958    162649.04    72.204633    72.204634    36.023901          120    17159.202    17232.431   -35756.576   -1936.3641   -2614.0668   -602.82626    72.204633    62.531047    36.023901    -454.9811   -312242.75 
    1860    49.125552    162647.38    72.204387    72.204387    36.023778          120    17034.418    17140.607   -35475.516   -1982.1409   -2383.8957   -570.79061    72.204387    62.530834    36.023778   -433.49704   -312243.71 
    1870    49.501927    162644.43     72.20395     72.20395    36.023561          120    17005.846    16968.792   -35577.676   -1953.1676   -2128.9629   -795.67945     72.20395    62.530456    36.023561   -534.34586   -312245.15 
    1880    49.627069       162640    72.203294    72.203295    36.023233          120    16962.364     16809.41    -35555.35   -1981.8961   -2282.1169   -882.98852    72.203294    62.529888    36.023233   -594.52537   -312246.03 
    1890    48.885539    162634.01    72.202409    72.202409    36.022792          120    17022.793    16756.142   -35231.726   -1837.4883   -2287.6724   -765.45894    72.202409    62.529121    36.022792   -484.26364   -312245.48 
    1900    48.878814    162626.82    72.201344    72.201344     36.02226          120    17035.843    16931.694   -35198.427   -1579.0712   -2346.4333   -520.94819    72.201344    62.528199     36.02226   -410.29705    -312245.9 
    1910    48.548023    162618.67    72.200138    72.200139    36.021659          120     17053.04     17059.79   -35297.996   -1591.0702   -2546.9395   -731.90642    72.200138    62.527155    36.021659   -395.05498   -312245.85 
    1920     48.54877    162609.68    72.198808    72.198809    36.020995          120     17120.86    16996.687   -35297.117   -1642.9492   -2514.8425   -1008.4386    72.198808    62.526003    36.020995   -393.19018   -312246.38 
    1930    48.374137     162599.9     72.19736    72.197361    36.020273          120    17149.998    16748.964   -35022.673   -1566.6715   -2547.2734   -1134.3976     72.19736    62.524749    36.020273   -374.57006   -312246.38 
    1940    48.254272    162589.45    72.195813    72.195814    36.019501          120    17538.099    16689.212   -34857.236   -1560.8662   -2749.4687   -1277.5714    72.195813    62.523409    36.019501   -209.97484   -312246.58 
    1950    48.438266    162578.85    72.194245    72.194246    36.018719          120    17878.775    17122.384   -34794.344   -1431.4948   -2569.2903   -1283.4236    72.194245    62.522051    36.018719    68.938599   -312247.13 
    1960    48.394359    162568.88    72.192768    72.192769    36.017982          120     17840.58    17435.925   -34835.694   -1468.0777   -2280.2938   -1127.9595    72.192768    62.520772    36.017982    146.93704   -312247.29 
    1970    48.754526    162559.76    72.191418    72.191419    36.017308          120    17465.549    17586.975   -34609.308   -1575.6036   -2449.3616   -1144.6184    72.191418    62.519603    36.017308     147.7388   -312247.85 
    1980     48.98692    162551.53    72.190201    72.190202    36.016701          120    17580.242     17737.06    -34299.81   -1480.7982    -2703.285   -1023.0123    72.190201    62.518549    36.016701    339.16392   -312248.37 
    1990    48.712487    162544.72    72.189193    72.189193    36.016198          120      18024.6    17900.195   -34092.349   -1453.4898   -2544.0778   -855.61354    72.189193    62.517676    36.016198    610.81531   -312247.87 
    2000    48.383405    162540.01    72.188496    72.188496     36.01585          120    17869.389    18126.459   -33845.987   -1464.8892   -2601.2402   -747.79974    72.188496    62.517072     36.01585    716.62001   -312247.14 
    2010    49.305374    162537.63    72.188142    72.188143    36.015674          120    17765.679    18422.672   -34259.632    -1665.946   -2476.3535   -711.67547    72.188142    62.516766    36.015674    642.90627   -312248.72 
    2020    49.352086    162537.27    72.188089     72.18809    36.015647          120    17726.316     18277.27    -34593.59    -1859.959   -2372.5014   -903.89392    72.188089     62.51672    36.015647    469.99861   -312248.25 
    2030    49.497657    162538.28    72.188239    72.188239    36.015722          120    17590.242    17767.624   -34941.875   -1719.4481   -2431.3547   -984.71857    72.188239    62.516849    36.015722    138.66352   -312248.53 
    2040    49.177171    162539.75    72.188457    72.188458    36.015831          120     17879.86    17666.378   -35061.541   -1542.8474   -2546.0832   -1101.5029    72.188457    62.517039    36.015831    161.56551   -312247.66 
    2050    49.258579    162541.74    72.188752    72.188752    36.015978          120    18247.086     17804.57   -34735.311   -1621.3236   -2645.1289   -1062.1198    72.188752    62.517293    36.015978    438.78135   -312247.75 
    2060    49.534314    162544.84     72.18921    72.189211    36.016207          120    18017.506    17661.352   -34760.917   -1700.9044   -2753.6578   -979.23562     72.18921    62.517691    36.016207     305.9805   -312247.94 
    2070    49.301046    162548.75    72.189789     72.18979    36.016496          120    17978.886    17344.953   -34616.996   -1804.2048   -2998.8227   -1066.8507    72.189789    62.518192    36.016496    235.61398   -312247.24 
    2080    49.654819    162553.25    72.190456    72.190456    36.016828          120    18260.201    17255.065   -34517.246   -1985.5136   -2999.4467   -1138.1335    72.190456    62.518769    36.016828    332.67325   -312247.44 
    2090    49.668139    162558.52    72.191235    72.191235    36.017217          120    18270.128    17194.344   -34685.768   -1961.3575   -2962.0374   -1140.5892    72.191235    62.519444    36.017217    259.56806   -312247.11 
    2100    49.413175    162564.34    72.192096    72.192097    36.017647          120    18206.241    17194.555   -34911.743    -1870.282   -2813.5441   -968.26129    72.192096     62.52019    36.017647    163.01756   -312246.28 
    2110    49.308326    162570.46    72.193002    72.193003    36.018099          120    18344.641    17258.178   -34792.228   -1788.1188    -2456.142   -980.41825    72.193002    62.520974    36.018099    270.19676   -312245.92 
    2120    49.452858    162577.13     72.19399    72.193991    36.018592          120    18270.683    17402.207   -34528.255    -1725.339   -2313.3331   -978.08738     72.19399     62.52183    36.018592    381.54499   -312245.64 
    2130    49.532768    162584.63    72.195101    72.195101    36.019146          120      18140.4    17430.399   -34515.029    -1570.889   -2271.7167   -1065.2196    72.195101    62.522792    36.019146    351.92338   -312245.36 
    2140     50.00246    162592.92    72.196327    72.196327    36.019757          120     18090.47    17686.137   -34491.517   -1721.6777   -2403.0185   -1122.9254    72.196327    62.523854    36.019757    428.36365   -312245.93 
    2150    50.239457    162602.09    72.197684    72.197685    36.020434          120    17855.989    17569.625   -34537.269   -1858.9886   -2465.7685   -1141.1405    72.197684    62.525029    36.020434     296.1147   -312245.87 
    2160    50.234444     162611.7    72.199107    72.199108    36.021145          120     17639.83    17103.879   -34866.858   -1739.6812   -2410.9091    -942.8812    72.199107    62.526262    36.021145   -41.049818   -312245.72 
    2170    49.943732    162620.85    72.200461    72.200462     36.02182          120    17859.886    16630.428     -35062.7   -1653.8258   -2388.9449   -810.23314    72.200461    62.527434     36.02182   -190.79549   -312244.81 
    2180    49.990527    162629.02     72.20167    72.201671    36.022423          120    17856.973    16277.747   -35263.965   -1667.8429   -2608.5814   -868.15484     72.20167    62.528481    36.022423   -376.41483   -312244.79 
    2190    50.418395     162635.7    72.202658    72.202659    36.022916          120    17698.305    16237.725   -35504.346   -1702.4596   -2823.2621   -817.52104    72.202658    62.529337    36.022916   -522.77202   -312245.12 
    2200    50.681704    162640.59    72.203382    72.203383    36.023277          120    17719.045    16629.738   -35542.771   -1575.6786    -2774.499   -726.28608    72.203382    62.529964    36.023277   -397.99581   -312245.14 
    2210    50.633533    162644.05    72.203895    72.203895    36.023533          120    17727.678     16838.58   -35551.026   -1616.4223   -2862.2723   -810.83879    72.203895    62.530408    36.023533   -328.25628   -312244.65 
    2220    50.857169    162646.36    72.204235    72.204236    36.023703          120    17442.896    17027.662   -35492.689   -1881.6755   -2719.8419   -1020.5352    72.204235    62.530703    36.023703   -340.71047   -312244.57 
    2230    50.582718    162647.54    72.204411    72.204412    36.023791          120    17446.639    17027.758   -35442.451   -1990.5219   -2710.2083   -1077.7611    72.204411    62.530855    36.023791   -322.68465   -312243.76 
    2240    50.848931    162647.74    72.204441    72.204441    36.023805          120    17551.114    16935.261   -35000.805   -1855.4901   -2868.3551   -1154.0283    72.204441    62.530881    36.023805    -171.4768   -312243.68 
    2250    50.914512    162647.42    72.204393    72.204394    36.023782          120    17784.852    17035.453   -34819.973   -1925.1546   -2749.8327   -977.11818    72.204393    62.530839    36.023782   0.11073242   -312243.76 
    2260    51.057781    162647.06     72.20434     72.20434    36.023755          120    17751.658    17171.185   -34951.625   -2022.8779   -2698.5836   -826.75607     72.20434    62.530793    36.023755   -9.5939173   -312243.87 
[...]
   99200     50.27285    162711.17    72.213825    72.213826    36.028488          120    18736.414    17241.943   -34979.074   -1858.9971   -2851.9946   -643.79717    72.213825    62.539008    36.028488    333.09418   -312256.69 
   99210    50.082618    162708.11    72.213373    72.213374    36.028262          120    18799.044     17535.95   -34475.724   -1835.6529   -2983.7022   -599.43848    72.213373    62.538616    36.028262    619.75667   -312256.59 
   99220    50.152772    162706.89    72.213192    72.213193    36.028172          120    18541.745    17676.448   -34356.644   -1787.9811   -2904.1697   -765.85675    72.213192     62.53846    36.028172    620.51619   -312257.14 
   99230    50.162849    162707.59    72.213295    72.213296    36.028223          120    18440.682     17465.77   -34235.672   -1767.6998   -2924.5998   -688.30663    72.213295    62.538549    36.028223    556.92681   -312257.22 
   99240    49.697996    162710.05    72.213659     72.21366    36.028405          120     18489.77     17622.86   -34274.363   -1992.4613   -3034.1421   -950.41671    72.213659    62.538864    36.028405    612.75561    -312256.4 
   99250     49.88998    162714.31     72.21429    72.214291     36.02872          120    18418.385    17326.165   -34504.439   -2183.3395   -2923.1563   -845.55781     72.21429    62.539411     36.02872    413.37032   -312257.08 
   99260    50.083967    162719.81    72.215104    72.215105    36.029126          120    18189.905    17038.162   -34964.907   -2022.6042   -2889.2426   -682.59909    72.215104    62.540115    36.029126    87.720075    -312257.8 
   99270    49.868498    162725.56    72.215954    72.215954    36.029549          120    17675.797    16872.095   -35179.673   -2000.0239   -2604.1717   -843.71211    72.215954    62.540851    36.029549   -210.59372   -312257.57 
   99280     49.60867    162730.68    72.216712    72.216712    36.029928          120    17844.218    16509.402   -35138.508   -1690.5515   -2226.5935   -632.42396    72.216712    62.541508    36.029928   -261.62932   -312257.23 
   99290    49.588447    162735.04    72.217356    72.217356    36.030249          120    18154.622    16636.348   -35162.399   -1597.7319   -2365.0352   -923.29973    72.217356    62.542065    36.030249   -123.80956   -312257.04 
   99300    49.632057    162738.93    72.217931    72.217932    36.030536          120    17890.453    16698.792   -35063.718   -1598.0718   -2821.7521    -854.2003    72.217931    62.542564    36.030536   -158.15741   -312257.18 
   99310    49.871695    162742.26    72.218424    72.218425    36.030782          120    17820.958    16467.952   -35295.184   -1560.2311   -2845.8262   -759.41963    72.218424    62.542991    36.030782    -335.4248   -312257.48 
   99320    49.559261    162744.58    72.218767    72.218768    36.030953          120    17927.585    16225.702    -35229.02   -1738.2536   -3083.6904   -763.25149    72.218767    62.543288    36.030953   -358.57756    -312256.8 
   99330    49.518106    162745.84    72.218953    72.218954    36.031046          120    18145.855     16709.59   -35180.648   -1667.8775   -3106.0962   -838.29224    72.218953    62.543449    36.031046   -108.40093   -312256.85 
   99340    49.775744    162746.71    72.219083    72.219084    36.031111          120     18293.48    16890.748     -35055.5   -1483.0823   -2704.7802   -570.72739    72.219083    62.543561    36.031111    42.908966   -312257.38 
   99350    49.499082    162747.74    72.219235    72.219236    36.031187          120    18214.287    17117.399   -34733.118   -1525.6517   -2744.5007   -897.01768    72.219235    62.543693    36.031187     199.5226   -312257.19 
   99360    49.827402    162749.28    72.219463    72.219463      36.0313          120    18198.087    17018.247   -35078.789   -1740.8434   -2781.0974   -911.18887    72.219463     62.54389      36.0313    45.848336   -312257.68 
   99370    49.762357    162750.93    72.219707    72.219708    36.031422          120    18034.585    16753.404   -35416.046   -1866.9949   -2446.0917   -791.34961    72.219707    62.544102    36.031422   -209.35245    -312257.7 
   99380     50.00054    162751.95    72.219858    72.219858    36.031497          120    17923.351    16557.374   -35567.116   -2033.7291   -2307.5935   -824.28462    72.219858    62.544232    36.031497   -362.13032   -312258.32 
   99390    49.399062    162751.92    72.219853    72.219854    36.031495          120    18086.066    16554.365   -35368.467   -1941.0063   -2506.4119   -543.89731    72.219853    62.544228    36.031495    -242.6789   -312256.98 
   99400    49.742819    162751.15    72.219739    72.219739    36.031438          120    18075.817    17015.605   -35318.995   -1906.2805   -2619.9468   -684.27922    72.219739    62.544129    36.031438   -75.857935   -312257.73 
   99410    49.688707    162750.07     72.21958     72.21958    36.031359          120    18178.254    16887.007   -35350.959   -1867.8432    -2679.711   -693.80737     72.21958    62.543991    36.031359   -95.232696   -312257.51 
   99420    49.436055    162748.73    72.219381    72.219382     36.03126          120    18133.848    16652.071   -34906.271   -1834.7281    -2634.613   -1038.9084    72.219381     62.54382     36.03126   -40.117153   -312256.99 
   99430    49.835234    162747.23     72.21916     72.21916    36.031149          120    17963.491    16590.412   -34858.013   -1699.4954   -2946.4148   -1059.4572     72.21916    62.543628    36.031149    -101.3702   -312257.44 
   99440    49.537468     162745.4    72.218889    72.218889    36.031014          120    18036.315    16462.532   -35297.308   -1706.2122   -2933.4495   -884.11334    72.218889    62.543393    36.031014   -266.15363   -312256.74 
   99450    49.535674    162742.78    72.218501    72.218502    36.030821          120    18329.757    16336.249   -35596.789   -1772.4188   -2926.7042   -653.73541    72.218501    62.543057    36.030821   -310.26109   -312256.52 
   99460    50.154965    162739.25    72.217979    72.217979     36.03056          120    18235.025     16486.92   -35292.924   -1644.2703    -2572.591    -444.1738    72.217979    62.542605     36.03056    -190.3267   -312257.81 
   99470    49.673009    162735.12    72.217368    72.217369    36.030255          120    18103.871    16755.205   -35167.433   -1505.4501   -2395.8873   -211.66797    72.217368    62.542076    36.030255   -102.78577   -312256.62 
   99480    50.198805    162730.72    72.216717    72.216718    36.029931          120    18198.473     16916.86   -34939.887   -1400.4071    -2502.566   -354.53645    72.216717    62.541513    36.029931    58.481977   -312257.68 
   99490    49.909971    162726.41     72.21608     72.21608    36.029612          120    17987.411    16900.076    -35287.66   -1542.3013   -2793.1315   -738.09587     72.21608     62.54096    36.029612   -133.39073   -312257.13 
   99500     50.05888    162721.71    72.215385    72.215386    36.029266          120    17823.719     16648.87   -35472.431   -1785.9095   -2802.0264   -606.31432    72.215385    62.540359    36.029266   -333.28065   -312257.13 
   99510    49.833526    162716.09    72.214554    72.214554    36.028851          120     18142.55    16522.164   -35215.362   -2093.0156   -2700.0636   -489.31579    72.214554    62.539639    36.028851   -183.54948   -312256.83 
   99520    49.965332    162710.01    72.213653    72.213654    36.028402          120    18533.394    16855.641   -34820.396   -1948.7425   -2955.3288   -788.46704    72.213653    62.538859    36.028402    189.54626   -312257.01 
   99530     49.97546    162704.46    72.212833    72.212834    36.027993          120    18505.137    17352.114   -34744.801   -1886.1324    -3276.543   -1001.6884    72.212833    62.538149    36.027993    370.81668   -312256.99 
   99540    49.867278     162700.1    72.212187    72.212188     36.02767          120    18728.728    17404.887   -34559.733   -2026.6528   -3259.3875   -929.03397    72.212187    62.537589     36.02767    524.62704   -312256.61 
   99550    50.454205    162697.26    72.211767    72.211768    36.027461          120    18246.281     17361.28   -34611.902   -1861.0019   -2982.6637   -886.26041    72.211767    62.537226    36.027461    331.88672   -312257.69 
   99560    50.009979    162695.46    72.211501    72.211501    36.027328          120    17978.439    17405.562   -35066.102    -1901.032   -2810.4399   -937.28452    72.211501    62.536995    36.027328    105.96619   -312256.87 
   99570    50.434949    162694.09    72.211298    72.211299    36.027227          120    18151.833    17221.552   -34974.094    -1851.111   -2471.8447   -1050.9826    72.211298    62.536819    36.027227    133.09682   -312257.69 
   99580    49.919704    162693.09     72.21115     72.21115    36.027153          120    18184.337    17198.601   -35292.115   -1868.6048   -2631.8624   -1129.7064     72.21115    62.536691    36.027153    30.274355   -312256.83 
   99590    49.725381    162692.28    72.211031    72.211031    36.027093          120    18373.423     17141.61   -34960.223   -1738.0887   -2804.7121   -846.10662    72.211031    62.536588    36.027093    184.93633   -312256.48 
   99600    50.450532    162691.97    72.210985    72.210986    36.027071          120    18585.756    17083.474   -35077.873   -1580.1606   -2816.6143   -623.09983    72.210985    62.536548    36.027071    197.11909   -312257.65 
   99610    50.223911    162692.31    72.211034    72.211035    36.027095          120    18691.415    17096.146   -34911.505   -1419.1202   -2706.8807   -748.86176    72.211034    62.536591    36.027095    292.01886   -312257.11 
   99620    50.209458     162693.5    72.211212    72.211212    36.027184          120    18256.853    17262.744   -34662.739      -1746.2    -2685.115   -742.24426    72.211212    62.536744    36.027184    285.61955   -312257.24 
   99630    50.012567    162695.55    72.211514    72.211514    36.027334          120    18327.553    17029.813    -34740.36   -1769.9291   -2705.7288   -642.86469    72.211514    62.537006    36.027334    205.66833   -312256.89 
   99640    50.083313    162698.32    72.211924    72.211925    36.027539          120    18623.814    17221.385   -34588.273    -1712.534    -2768.938     -711.444    72.211924    62.537361    36.027539    418.97514    -312257.1 
   99650    49.772681    162702.28    72.212509     72.21251    36.027831          120    18598.706    17111.147   -34697.275   -1742.3387   -2984.6629    -661.9994    72.212509    62.537868    36.027831    337.52625   -312256.45 
   99660    50.386483    162707.25    72.213245    72.213246    36.028198          120    18336.437    17035.847   -34943.411   -1810.1204   -2888.4036   -884.31513    72.213245    62.538505    36.028198     142.9578   -312257.21 
   99670     50.01513    162712.65    72.214044    72.214044    36.028596          120    18177.014    17003.616   -35184.951      -1906.4   -2695.2807   -848.00708    72.214044    62.539197    36.028596   -1.4404848   -312256.35 
   99680     50.02754    162718.13    72.214855    72.214855    36.029001          120    18211.346    17359.235   -34921.935   -1875.0008   -2597.4502   -1124.6276    72.214855      62.5399    36.029001    216.21525   -312256.39 
   99690    50.596255     162724.2    72.215753    72.215753    36.029449          120    18214.456    17499.256   -34873.936   -1809.4731   -2639.9179   -1197.8443    72.215753    62.540677    36.029449    279.92551   -312257.35 
   99700     50.15069    162731.08    72.216771    72.216771    36.029957          120    18220.828    17119.302   -34703.495   -1916.5694   -2557.3834    -1013.976    72.216771    62.541559    36.029957     212.2117   -312256.45 
   99710    50.071487    162738.58    72.217881    72.217881    36.030511          120    18134.294    16893.483   -34755.129   -1912.0209   -2478.9919   -643.31372    72.217881     62.54252    36.030511    90.882603   -312256.59 
   99720    50.212769    162746.24    72.219013    72.219013    36.031076          120    17791.511    16698.466   -35440.649   -1773.9039   -2706.4362   -357.66596    72.219013      62.5435    36.031076   -316.89069   -312256.95 
   99730    49.810043     162752.9    72.219998    72.219998    36.031567          120    17496.497    16352.146   -35743.019    -1991.431   -2954.8278   -401.87499    72.219998    62.544353    36.031567   -631.45867   -312255.91 
   99740    49.988426    162757.65      72.2207    72.220701    36.031917          120    17703.608    16191.163   -35702.179   -1978.4311   -3222.3255   -429.43997      72.2207    62.544962    36.031917   -602.46969   -312256.57 
   99750    50.334298    162760.57    72.221132    72.221133    36.032133          120    17626.003     16587.05   -35329.938   -1844.0003   -3060.1884    -625.8375    72.221132    62.545336    36.032133   -372.29491   -312257.11 
   99760    49.741896    162762.19    72.221372    72.221373    36.032253          120    17571.883     16385.74   -35587.411   -1834.2374   -2868.9146   -606.77818    72.221372    62.545544    36.032253   -543.26284   -312255.84 
   99770    49.819157    162762.16    72.221368    72.221369    36.032251          120    17672.721    16494.064    -35911.04    -1834.584   -2705.0244   -644.42112    72.221368     62.54554    36.032251   -581.41818   -312255.89 
   99780    49.941052    162760.33    72.221098    72.221098    36.032116          120    17494.439    16485.345   -35652.098    -1608.068   -2428.0604   -830.57467    72.221098    62.545306    36.032116   -557.43803   -312255.94 
   99790    50.759112    162756.82    72.220579    72.220579    36.031857          120    17685.439     16701.63    -35487.21   -1864.6984   -2488.6534   -682.60458    72.220579    62.544856    36.031857   -366.71371   -312257.94 
   99800    50.291022     162752.3    72.219909     72.21991    36.031523          120    18340.181    16995.449   -34948.671   -1838.4851   -2763.8269   -714.81332    72.219909    62.544277    36.031523    128.98642   -312257.17 
   99810    49.875997    162748.02    72.219276    72.219277    36.031207          120    18160.409    17167.964   -35119.555   -1626.6132   -3091.9422   -418.43874    72.219276    62.543729    36.031207    69.606162   -312256.33 
   99820    49.587464    162743.97    72.218677    72.218678    36.030908          120    18023.999    16910.158   -35259.623   -1828.6277   -3025.0902   -429.89543    72.218677     62.54321    36.030908   -108.48887   -312256.05 
   99830    50.161184    162739.61    72.218032    72.218033    36.030586          120    18217.654    16537.898   -35319.456   -1599.0462    -3146.229   -238.99439    72.218032    62.542651    36.030586   -187.96802   -312257.32 
   99840    49.666822    162734.78    72.217318    72.217318     36.03023          120    18476.944    16469.385   -34912.677   -1549.7002   -2838.2592    -288.1491    72.217318    62.542032     36.03023    11.217449   -312256.28 
   99850    49.658577    162729.95    72.216604    72.216604    36.029874          120    18673.357    16628.155   -35000.487   -1514.0937   -2728.3148   -535.00568    72.216604    62.541414    36.029874     100.3417   -312256.12 
   99860    50.478607    162725.43    72.215935    72.215936     36.02954          120    18683.751    16694.643   -35036.371   -1692.8192   -2616.5497   -691.59143    72.215935    62.540835     36.02954    114.00749   -312258.06 
   99870    49.994303    162721.26    72.215318    72.215319    36.029232          120      18547.1    16756.275   -35150.385   -1726.4166   -2566.4355   -878.75125    72.215318    62.540301    36.029232    50.996579   -312256.92 
   99880    49.901338    162717.25    72.214724    72.214725    36.028936          120    18451.562    16896.792   -35341.218   -1874.3568   -2601.0989   -987.32262    72.214724    62.539786    36.028936    2.3786477   -312257.01 
   99890    50.238782    162713.32    72.214144    72.214144    36.028646          120    18787.077    17134.873   -35435.902   -2006.2852   -2535.8792   -1121.3005    72.214144    62.539284    36.028646    162.01589   -312257.78 
   99900    50.210385    162709.93    72.213642    72.213643    36.028396          120    18824.246    17244.158    -34977.23   -1921.0412   -2770.1911   -1057.9837    72.213642    62.538849    36.028396    363.72439   -312257.53 
   99910    49.950957    162707.62      72.2133      72.2133    36.028225          120    18451.869    17126.055   -34592.036    -1933.182    -2647.139   -980.65544      72.2133    62.538553    36.028225    328.62955   -312256.96 
   99920    49.636136     162706.3    72.213105    72.213105    36.028128          120    18232.611    17102.233   -34721.062   -1809.9654   -2809.4394   -728.32088    72.213105    62.538384    36.028128    204.59417   -312256.27 
   99930     50.40158    162705.65    72.213009    72.213009     36.02808          120    18181.026     17051.17   -34693.971   -1823.1995   -2839.4422    -880.7471    72.213009    62.538301     36.02808    179.40833   -312257.83 
   99940    50.074428    162705.58    72.212998    72.212998    36.028075          120    18139.897    17279.838   -34566.464   -1903.4464   -2681.0747   -741.57969    72.212998    62.538291    36.028075    284.42366   -312257.27 
   99950    49.452644    162706.47     72.21313    72.213131    36.028141          120    18316.012    17893.976   -34218.895   -1943.1373   -2519.9427   -719.53686     72.21313    62.538406    36.028141    663.69778   -312256.05 
   99960     50.24472     162709.3    72.213549    72.213549     36.02835          120    18614.338    17474.929   -34318.316   -1871.2889   -2565.8775   -759.03905    72.213549    62.538768     36.02835    590.31702   -312257.57 
   99970    50.280388    162713.86    72.214223    72.214223    36.028686          120    18624.277    16856.559   -34924.846   -1623.1549   -2927.8331    -453.7643    72.214223    62.539352    36.028686    185.33031   -312257.67 
   99980    49.827341    162719.04     72.21499    72.214991    36.029069          120    18344.826    16628.229   -34931.944   -1523.8048   -2603.6224   -724.54654     72.21499    62.540017    36.029069    13.703743   -312256.45 
   99990    50.076789    162724.28    72.215764    72.215765    36.029455          120    18063.576    16659.843   -34957.773   -1360.4103   -2556.7909   -852.18518    72.215764    62.540687    36.029455   -78.118233   -312256.89 
  100000    50.237159    162729.22    72.216496    72.216496     36.02982          120    17993.967    16668.872   -35231.837   -1464.4473   -2570.8912   -856.76663    72.216496    62.541321     36.02982    -189.6659   -312257.15 
Loop time of 36222.2 on 1 procs for 100000 steps with 14848 atoms

Performance: 0.239 ns/day, 100.617 hours/ns, 2.761 timesteps/s
100.0% CPU use with 1 MPI tasks x no OpenMP threads

MPI task timing breakdown:
Section |  min time  |  avg time  |  max time  |%varavg| %total
---------------------------------------------------------------
Pair    | 32423      | 32423      | 32423      |   0.0 | 89.51
Bond    | 0.057179   | 0.057179   | 0.057179   |   0.0 |  0.00
Kspace  | 1508.4     | 1508.4     | 1508.4     |   0.0 |  4.16
Neigh   | 1375.3     | 1375.3     | 1375.3     |   0.0 |  3.80
Comm    | 39.702     | 39.702     | 39.702     |   0.0 |  0.11
Output  | 1.6542     | 1.6542     | 1.6542     |   0.0 |  0.00
Modify  | 857.66     | 857.66     | 857.66     |   0.0 |  2.37
Other   |            | 16.41      |            |       |  0.05

Nlocal:    14848 ave 14848 max 14848 min
Histogram: 1 0 0 0 0 0 0 0 0 0
Nghost:    46879 ave 46879 max 46879 min
Histogram: 1 0 0 0 0 0 0 0 0 0
Neighs:    1.01133e+07 ave 1.01133e+07 max 1.01133e+07 min
Histogram: 1 0 0 0 0 0 0 0 0 0

Total # of neighbors = 10113331
Ave neighs/atom = 681.124
Ave special neighs/atom = 0
Neighbor list builds = 4003
Dangerous builds = 0
 
All done!
Total wall time: 10:10:04
