LAMMPS (16 Mar 2018)
Reading data file ...
  triclinic box = (0 0 0) to (9.208 7.97436 18.376) with tilt (-4.604 0 0)
  1 by 1 by 1 MPI processor grid
  reading atoms ...
  119 atoms
  scanning bonds ...
  2 = max bonds/atom
  scanning angles ...
  1 = max angles/atom
  reading bonds ...
  2 bonds
  reading angles ...
  1 angles
Finding 1-2 1-3 1-4 neighbors ...
  special bond factors lj:   0          0          0         
  special bond factors coul: 0          0          0         
  2 = max # of 1-2 neighbors
  1 = max # of 1-3 neighbors
  1 = max # of 1-4 neighbors
  2 = max # of special neighbors
Replicating atoms ...
  triclinic box = (0 0 0) to (73.664 63.7949 36.752) with tilt (-36.832 0 0)
  1 by 1 by 1 MPI processor grid
  15232 atoms
  256 bonds
  128 angles
Finding 1-2 1-3 1-4 neighbors ...
  special bond factors lj:   0          0          0         
  special bond factors coul: 0          0          0         
  2 = max # of 1-2 neighbors
  1 = max # of 1-3 neighbors
  1 = max # of 1-4 neighbors
  2 = max # of special neighbors
  Time spent = 0.00314593 secs
PPPM initialization ...
WARNING: System is not charge neutral, net charge = -0.256 (../kspace.cpp:302)
  using 12-bit tables for long-range coulomb (../kspace.cpp:321)
  G vector (1/distance) = 0.201677
  grid = 36 50 24
  stencil order = 5
  estimated absolute RMS force accuracy = 0.00104623
  estimated relative force accuracy = 7.26566e-05
  using double precision FFTs
  3d grid and FFT values/proc = 65395 43200
Neighbor list info ...
  update every 1 steps, delay 0 steps, check yes
  max neighbors/atom: 2000, page size: 100000
  master list distance cutoff = 15.3
  ghost atom cutoff = 15.3
  binsize = 7.65, bins = 15 9 5
  3 neighbor lists, perpetual/occasional/extra = 3 0 0
  (1) pair morse, perpetual
      attributes: half, newton on
      pair build: half/bin/newton/tri
      stencil: half/bin/3d/newton/tri
      bin: standard
  (2) pair buck, perpetual, copy from (1)
      attributes: half, newton on
      pair build: copy
      stencil: none
      bin: none
  (3) pair lj/cut/coul/long, perpetual, copy from (1)
      attributes: half, newton on
      pair build: copy
      stencil: none
      bin: none
Setting up cg style minimization ...
  Unit style    : metal
  Current step  : 0
WARNING: Energy due to 1 extra global DOFs will be included in minimizer energies
Per MPI rank memory allocation (min/avg/max) = 158.3 | 158.3 | 158.3 Mbytes
Step Temp Volume Cella Cellb Cellc CellGamma Pxx Pyy Pzz Pxy Pxz Pyz Lx Ly Lz Press PotEng 
       0            0    172711.88       73.664    73.664001       36.752          120   -204287.19   -203921.25   -275759.15    14.409285    148.37018    61.948388       73.664    63.794896       36.752    -227989.2   -308818.52 
      10            0    172194.26    73.590336    73.590337    36.715248          120   -198242.94   -198866.33   -269748.85    588.97858    1435.5224   -450.30382    73.590336    63.731101    36.715248   -222286.04   -308926.98 
      20            0    171677.68    73.516672    73.516673    36.678496          120   -191077.53   -192692.18   -263360.01     1165.624    2727.6277   -964.43094    73.516672    63.667306    36.678496   -215709.91   -308996.53 
      30            0    171162.13    73.443008    73.443009    36.641744          120   -183888.41   -186498.51   -257148.71    1744.8482     4025.246   -1480.2541    73.443008    63.603511    36.641744   -209178.54   -309067.82 
      40            0    170647.62    73.369344    73.369345    36.604992          120   -176591.87    -180202.5   -250775.47    2326.1933     5327.957   -1999.7045    73.369344    63.539716    36.604992   -202523.28   -309134.35 
      50            0    170134.13     73.29568    73.295681     36.56824          120    -169176.6   -173791.05   -244188.88    2910.1319    6636.4853   -2521.1481     73.29568    63.475922     36.56824   -195718.84    -309197.3 
      60            0    169621.68    73.222016    73.222017    36.531488          120   -161832.44   -167452.54   -237984.89    3497.0297    7948.4474   -3043.5901    73.222016    63.412127    36.531488   -189089.96   -309264.18 
      70            0    169110.26    73.148352    73.148353    36.494736          120   -154313.51   -160945.26   -231382.59     4084.979    9266.4393   -3568.4282    73.148352    63.348332    36.494736   -182213.79   -309324.31 
      80            0    168599.87    73.074688    73.074689    36.457984          120   -146727.36   -154375.08   -224656.79    4675.5959    10589.912   -4094.8955    73.074688    63.284537    36.457984   -175253.08   -309381.93 
      90            0     168090.5    73.001024    73.001025    36.421232          120   -138997.51   -147664.91   -217736.34    5268.6837    11918.343   -4623.8942    73.001024    63.220742    36.421232   -168132.92   -309436.17 
     100            0    167582.16     72.92736    72.927361     36.38448          120   -131385.06   -141075.34   -210773.05    5864.7862    13252.159   -5154.2584     72.92736    63.156947     36.38448   -161077.81   -309492.35 
     110            0    167074.85    72.853696    72.853697    36.347728          120   -123468.91   -134187.56   -203856.14    6462.1562    14591.394   -5687.5787    72.853696    63.093152    36.347728   -153837.54   -309542.61 
     120            0    166568.56    72.780032    72.780033    36.310976          120   -115499.94   -127250.56   -196831.36    7061.2631    15935.427   -6222.4159    72.780032    63.029357    36.310976   -146527.29   -309590.79 
     130            0     166063.3    72.706368    72.706369    36.274224          120   -107384.19    -120171.3   -189705.02     7663.649    17284.767   -6759.4066    72.706368    62.965562    36.274224   -139086.84   -309635.99 
     140            0    165559.06    72.632704    72.632705    36.237472          120   -99200.305   -113027.96   -182382.46    8268.2731    18639.438   -7299.0209    72.632704    62.901767    36.237472   -131536.91   -309678.32 
     150            0    165055.84     72.55904    72.559041     36.20072          120    -90918.86   -105789.98   -175057.03    8875.3836     19999.81   -7840.2227     72.55904    62.837973     36.20072   -123921.96   -309718.81 
     160            0    164553.64    72.485376    72.485377    36.163968          120   -82563.292    -98483.38   -167733.11    9484.4764     21364.74   -8382.6618    72.485376    62.774178    36.163968   -116259.93   -309757.34 
     170            0    164052.47    72.411712    72.411713    36.127216          120   -74037.819   -91010.759   -160288.14     10095.63    22735.483   -8927.9588    72.411712    62.710383    36.127216   -108445.57   -309792.48 
     180            0    163552.31    72.338048    72.338049    36.090464          120   -65477.831   -83505.203   -152659.46    10709.626    24111.391   -9475.5099    72.338048    62.646588    36.090464    -100547.5   -309825.43 
     190            0    163053.16    72.264384    72.264385    36.053712          120   -56819.212   -75906.737   -145004.17    11325.976    25492.808   -10025.227    72.264384    62.582793    36.053712   -92576.705   -309855.98 
     200            0    162555.04     72.19072    72.190721     36.01696          120   -48088.266   -68239.589   -137452.01    11944.634    26878.889    -10577.11     72.19072    62.518998     36.01696   -84593.288   -309885.34 
     210            0    162057.93    72.117056    72.117057    35.980208          120   -39178.258   -60397.247   -129634.38    12565.966    28270.536   -11130.742    72.117056    62.455203    35.980208   -76403.296   -309910.55 
     220            0    161561.83    72.043392    72.043393    35.943456          120   -30205.018    -52497.11   -121651.08    13189.161    29667.374   -11685.864    72.043392    62.391408    35.943456   -68117.737   -309933.09 
     230            0    161066.75    71.969728    71.969729    35.906704          120   -21035.612   -44403.637   -113441.92    13815.548    31069.445   -12242.698    71.969728    62.327613    35.906704   -59627.055   -309951.47 
     240            0    160572.68    71.896064    71.896065    35.869952          120   -11794.496   -36241.784   -105241.89    14442.673    32476.119   -12802.008    71.896064    62.263818    35.869952   -51092.725   -309968.15 
     250            0    160079.62      71.8224    71.822401      35.8332          120   -2654.2413   -28185.619   -96951.481    15070.759    33887.261   -13362.707      71.8224    62.200024      35.8332   -42597.114   -309985.14 
     260            0    159587.58    71.748736    71.748737    35.796448          120    6151.9357   -20466.853   -90464.359    15700.772     35302.34   -13925.197    71.748736    62.136229    35.796448   -34926.426   -310036.33 
     270            0    159096.54    71.675072    71.675073    35.759696          120    15712.256   -11997.286   -82006.734    16332.743    36720.305   -14488.438    71.675072    62.072434    35.759696   -26097.255   -310045.31 
     277            0    159068.85    71.670914    71.670914    35.757621          120    16251.906   -11519.157   -81526.648    16368.436     36800.68    -14520.35    71.670914    62.068833    35.757621   -25597.966   -310045.79 
Loop time of 151.954 on 1 procs for 277 steps with 15232 atoms

100.0% CPU use with 1 MPI tasks x no OpenMP threads

Minimization stats:
  Stopping criterion = linesearch alpha is zero
  Energy initial, next-to-last, final = 
          -308818.5199     -310045.800013     -310045.800013
  Force two-norm initial, final = 73731.1 7918.09
  Force max component initial, final = 73730.9 7836.66
  Final line search alpha, max atom move = 1.90147e-16 1.49012e-12
  Iterations, force evaluations = 277 383

MPI task timing breakdown:
Section |  min time  |  avg time  |  max time  |%varavg| %total
---------------------------------------------------------------
Pair    | 135.85     | 135.85     | 135.85     |   0.0 | 89.40
Bond    | 0.0064569  | 0.0064569  | 0.0064569  |   0.0 |  0.00
Kspace  | 4.2039     | 4.2039     | 4.2039     |   0.0 |  2.77
Neigh   | 7.016      | 7.016      | 7.016      |   0.0 |  4.62
Comm    | 0.10163    | 0.10163    | 0.10163    |   0.0 |  0.07
Output  | 0.00298    | 0.00298    | 0.00298    |   0.0 |  0.00
Modify  | 0          | 0          | 0          |   0.0 |  0.00
Other   |            | 4.77       |            |       |  3.14

Nlocal:    15232 ave 15232 max 15232 min
Histogram: 1 0 0 0 0 0 0 0 0 0
Nghost:    47648 ave 47648 max 47648 min
Histogram: 1 0 0 0 0 0 0 0 0 0
Neighs:    1.08767e+07 ave 1.08767e+07 max 1.08767e+07 min
Histogram: 1 0 0 0 0 0 0 0 0 0

Total # of neighbors = 10876672
Ave neighs/atom = 714.067
Ave special neighs/atom = 0.0504202
Neighbor list builds = 24
Dangerous builds = 0
PPPM initialization ...
  using 12-bit tables for long-range coulomb (../kspace.cpp:321)
  G vector (1/distance) = 0.203017
  grid = 36 50 24
  stencil order = 5
  estimated absolute RMS force accuracy = 0.00096252
  estimated relative force accuracy = 6.68433e-05
  using double precision FFTs
  3d grid and FFT values/proc = 65395 43200
Setting up Verlet run ...
  Unit style    : metal
  Current step  : 0
  Time step     : 0.0001
Per MPI rank memory allocation (min/avg/max) = 163 | 163 | 163 Mbytes
Step Temp Volume Cella Cellb Cellc CellGamma Pxx Pyy Pzz Pxy Pxz Pyz Lx Ly Lz Press PotEng 
       0          100    159068.85    71.670914    71.670914    35.757621          120    17605.772   -10136.709   -80157.063     16387.04    36810.026   -14525.493    71.670914    62.068833    35.757621   -24229.333   -310045.03 
      10    187.95678    159068.39    71.670844    71.670845    35.757587          120   -49858.216   -43642.666   -139466.58   -2689.4457   -6915.2915       2645.6    71.670844    62.068773    35.757587    -77655.82   -310226.84 
      20    122.41364    159066.91    71.670622    71.670623    35.757476          120   -94313.943   -66939.233   -177519.05   -15703.925   -34879.424    14429.861    71.670622     62.06858    35.757476   -112924.08   -310087.98 
      30    179.02767    159064.35    71.670238    71.670238    35.757284          120   -6571.7711   -22917.192   -97244.547    9734.6157    22388.918   -8436.0961    71.670238    62.068247    35.757284   -42244.503   -310201.43 
      40    181.95576    159060.84     71.66971    71.669711    35.757021          120   -2534.5754   -20335.799   -90455.281    11783.142    25209.639   -10288.701     71.66971     62.06779    35.757021   -37775.219   -310204.66 
      50    176.59232    159056.37     71.66904    71.669041    35.756687          120   -92893.568   -68247.867   -168732.15   -14530.392   -32480.219    13113.177     71.66904     62.06721    35.756687   -109957.86   -310191.13 
      60     254.6342    159050.84    71.668208    71.668209    35.756272          120   -62105.705   -54295.879   -136151.76   -5584.8899   -10606.717    5412.5912    71.668208     62.06649    35.756272   -84184.448   -310350.72 
      70    201.09873    159044.27    71.667221    71.667222    35.755779          120    7223.0044   -16927.561   -65557.276    16603.099    35844.731   -13683.002    71.667221    62.065635    35.755779   -25087.278      -310238 
      80    315.38023    159036.77    71.666095    71.666096    35.755217          120   -51648.848   -49450.017   -115637.35   -585.72766    -2334.892    686.07006    71.666095     62.06466    35.755217   -72245.405   -310473.43 
      90    260.73385    159028.25    71.664816    71.664817    35.754579          120   -103901.49    -82036.82   -160690.89   -17485.845   -35185.522    14697.559    71.664816    62.063552    35.754579   -115543.07   -310359.14 
     100    351.73656    159018.65    71.663374    71.663375     35.75386          120   -28003.022   -38291.725   -76301.135    8418.6903     17753.91   -5931.9683    71.663374    62.062303     35.75386   -47531.961   -310546.86 
     110    345.30427    159008.08    71.661786    71.661787    35.753068          120   -15850.219   -31539.379   -55037.378    13582.818     27692.73   -9693.2645    71.661786    62.060928    35.753068   -34142.325   -310533.33 
     120    368.54937    158996.58    71.660057    71.660058    35.752205          120   -97477.907   -83855.498   -135189.72   -14376.262   -28165.446    10652.642    71.660057    62.059431    35.752205   -105507.71   -310581.49 
     130    428.52501    158984.01     71.65817     71.65817    35.751263          120   -81951.139   -74311.999   -108911.77   -7870.9446   -15930.674     5813.536     71.65817    62.057796    35.751263   -88391.637   -310705.91 
     140    383.84398    158970.43    71.656129    71.656129    35.750245          120   -17097.571   -31785.541   -21968.307    17070.453    33737.478    -10017.95    71.656129    62.056029    35.750245    -23617.14   -310613.92 
     150    484.42303    158955.96    71.653955    71.653955     35.74916          120    -59544.11   -62249.058   -64592.613    1172.5345    3142.6458   -247.97509    71.653955    62.054146     35.74916   -62128.593   -310823.39 
     160    411.99812    158940.55    71.651639     71.65164    35.748005          120    -110589.3   -99847.052   -122833.52   -18767.098   -36127.329    10488.393    71.651639     62.05214    35.748005   -111089.96   -310674.63 
     170    500.10024    158924.14    71.649173    71.649174    35.746775          120    -51519.23   -54133.035   -30058.169    6967.2429    12031.677   -2743.1855    71.649173    62.050005    35.746775   -45236.811    -310859.1 
     180     455.8358    158906.87    71.646577    71.646578     35.74548          120   -33067.951    -40200.67    8942.9758     15120.61    29082.365   -5887.0506    71.646577    62.047757     35.74548   -21441.882   -310770.12 
     190    481.47328    158888.81    71.643863    71.643864    35.744126          120   -94590.705   -93056.253   -80768.675   -13086.956   -23648.612    5262.3235    71.643863    62.045406    35.744126   -89471.877    -310826.3 
     200     498.7621    158869.88    71.641018    71.641018    35.742706          120   -89116.396   -87258.538   -63754.717   -9885.1611   -19616.097    3645.2287    71.641018    62.042942    35.742706   -80043.217   -310865.63 
     210    450.15461    158850.13    71.638049     71.63805    35.741225          120   -37019.189   -36636.416    44804.155    16521.288    29143.388   -3585.3439    71.638049    62.040371    35.741225   -9617.1503   -310768.84 
     220     518.1795    158829.73    71.634982    71.634983    35.739695          120   -60428.642    -60930.18    5644.8064    3566.2631     6473.465   -665.96954    71.634982    62.037715    35.739695   -38571.338   -310914.47 
     230    424.69036    158808.67    71.631816    71.631816    35.738115          120   -97663.252   -104007.38   -74080.384   -18254.151   -31855.621    2929.0156    71.631816    62.034973    35.738115   -91917.004   -310725.31 
     240    497.13975     158786.9    71.628543    71.628544    35.736482          120   -59233.395   -56665.859    27536.979     4485.786    6522.7673    513.00696    71.628543    62.032139    35.736482   -29454.092   -310880.26 
     250    414.19981    158764.59    71.625188    71.625189    35.734808          120   -41480.197   -31426.374     83887.73    15372.221    24010.008   -355.08214    71.625188    62.029233    35.734808    3660.3864   -310713.83 
     260    436.05223    158741.84    71.621766    71.621767    35.733101          120   -76413.009   -85066.763   -20835.563   -9826.2226   -15612.212   -794.29002    71.621766     62.02627    35.733101   -60771.779   -310764.56 
     270    406.88896    158718.58    71.618269    71.618269    35.731356          120   -75690.538   -87254.836   -17563.521   -10801.238   -16029.206   -18.808411    71.618269    62.023241    35.731356   -60169.632   -310709.48 
     280    355.59399    158694.87    71.614703    71.614703    35.729577          120   -43552.835   -26500.618    108928.13    13542.744    17680.294    2617.6349    71.614703    62.020153    35.729577    12958.225   -310608.65 
     290    385.95298    158670.89    71.611095    71.611096    35.727777          120    -52189.87   -44673.906    73210.802     5263.965     5843.809    183.27669    71.611095    62.017028    35.727777   -7884.3245   -310677.34 
     300    279.99465    158646.64    71.607447    71.607448    35.725957          120   -72888.467   -98409.504   -27623.346   -14717.869   -17417.171   -3964.5114    71.607447    62.013869    35.725957   -66307.106   -310463.05 
     310    337.36339    158622.08    71.603751    71.603751    35.724113          120   -54101.581    -50751.68    72638.065    1627.2223    820.98931    1490.2323    71.603751    62.010668    35.724113   -10738.399    -310586.8 
     320    232.04133    158597.32    71.600026    71.600027    35.722255          120   -42148.896    -15251.16    144458.68    12232.219    10293.894    4742.5015    71.600026    62.007442    35.722255     29019.54   -310373.55 
     330     263.5124     158572.5     71.59629    71.596291    35.720391          120   -58709.263   -73203.943     33710.34    -5388.281   -4455.1129   -3701.0969     71.59629    62.004207    35.720391   -32734.289   -310443.25 
     340    211.80084    158547.53    71.592532    71.592533    35.718516          120   -60850.866   -85201.014    16975.488   -8420.9975   -5648.3483   -4402.1849    71.592532    62.000952    35.718516   -43025.464   -310339.77 
     350    186.37722    158522.44    71.588755    71.588755    35.716631          120   -43468.853   -17155.357    150172.34    7979.2593    1657.8899     5651.769    71.588755    61.997681    35.716631    29849.378   -310290.29 
     360    208.89657    158497.37    71.584981    71.584982    35.714749          120   -46278.256   -31377.689    125821.89     4385.957    279.09983    2440.4052    71.584981    61.994413    35.714749    16055.315   -310339.98 
     370    130.92829    158472.34    71.581213    71.581214    35.712868          120   -59627.572   -94177.352    10907.197   -7761.5703    1405.6858   -7882.1383    71.581213     61.99115    35.712868   -47632.576   -310180.45 
     380    204.99928    158447.27    71.577438    71.577438    35.710985          120   -49210.485   -48543.052    95478.679   -5.2362196   -1352.0893   -173.07234    71.577438     61.98788    35.710985   -758.28611   -310335.25 
     390    119.41033    158422.25     71.57367    71.573671    35.709105          120   -38946.224   -5930.9018    179280.48    5758.6648   -7534.9169    7253.9461     71.57367    61.984617    35.709105    44801.117   -310159.03 
     400    191.25576     158397.4    71.569927    71.569928    35.707238          120   -51218.838   -63728.988    74130.392    -1303.407     3385.899   -3702.0695    71.569927    61.981376    35.707238   -13605.811   -310308.54 
     410    149.11137    158372.62    71.566196    71.566196    35.705376          120   -55507.878   -82911.052    34819.419   -2967.6848    9631.4724   -7396.2133    71.566196    61.978144    35.705376    -34533.17    -310221.1 
     420    173.66194    158347.91    71.562474    71.562474    35.703519          120   -36871.088   -13165.421    162406.38     1913.058   -11577.981    5135.6756    71.562474    61.974921    35.703519    37456.625   -310271.58 
     430    203.30374    158323.41    71.558782    71.558783    35.701677          120   -37382.103   -20301.018    151316.12    1306.7649   -9687.1815    3302.9873    71.558782    61.971724    35.701677        31211   -310332.68 
     440    165.94794    158299.12    71.555122    71.555122    35.699851          120   -56160.735   -84756.349    31875.196   -432.24183    18509.783   -8227.6972    71.555122    61.968554    35.699851   -36347.296   -310254.48 
     450    253.01932    158274.93    71.551478    71.551478    35.698033          120   -43374.297   -46563.856    95002.194   -17.591603    2267.8043   -1669.8798    71.551478    61.965398    35.698033    1688.0135   -310433.82 
     460    185.43795    158250.94    71.547861    71.547862    35.696229          120   -24248.063    1990.7582     180193.3   -662.58214   -23586.892    5596.6735    71.547861    61.962266    35.696229    52645.331   -310292.98 
     470    280.08406    158227.22    71.544287    71.544288    35.694446          120   -43497.689    -49045.01    87682.293    842.79247    6225.7396   -2955.0467    71.544287    61.959171    35.694446   -1620.1356   -310488.36 
     480    233.04297     158203.7    71.540742    71.540743    35.692677          120   -55645.737   -77019.783    34984.398    2119.0306    25114.653   -6123.8653    71.540742    61.956101    35.692677   -32560.374   -310389.73 
     490    285.75061    158180.33    71.537219     71.53722    35.690919          120   -23025.063   -9866.9968    144101.08   -1758.3496    -18532.58    2338.0702    71.537219     61.95305    35.690919    37069.673   -310497.88 
     500     299.8798    158157.22    71.533735    71.533736    35.689181          120    -20954.97   -7539.9206    141672.49   -1685.1345   -19219.415    1276.6428    71.533735    61.950033    35.689181    37725.865   -310526.49 
     510    286.75538    158134.38    71.530291    71.530292    35.687463          120    -56975.83   -72651.333    30703.704    3645.7186    29458.614    -4850.516    71.530291     61.94705    35.687463   -32974.486    -310498.3 
     520    364.76206    158111.67    71.526867    71.526868    35.685754          120   -39957.027   -45153.419    69589.345     982.6795    8636.6146   -1489.9612    71.526867    61.944085    35.685754   -5173.7002   -310658.84 
     530    307.54485    158089.13    71.523468    71.523469    35.684059          120   -4992.8011    9133.5225    143875.55   -3973.0124   -32491.979    931.09761    71.523468    61.941141    35.684059    49338.756   -310539.78 
     540    410.32683    158066.84    71.520107    71.520108    35.682382          120   -35089.554   -34890.837    67911.924    897.99802    5094.1271   -1962.6617    71.520107     61.93823    35.682382   -689.48882    -310752.2 
     550     356.9528     158044.7    71.516768    71.516768    35.680716          120   -60680.007   -71859.848    8324.9653    4633.4329    35058.989   -1773.2305    71.516768    61.935338    35.680716   -41404.963   -310640.99 
     560    431.23778    158022.62    71.513437    71.513437    35.679054          120   -11414.543   -6446.2651    89916.019   -2514.7668   -18106.831   -1055.9465    71.513437    61.932454    35.679054    24018.404   -310794.75 
     570    427.11781    158000.69    71.510128    71.510129    35.677403          120   -2738.5602    4315.0129    93039.403   -3232.3303   -25366.603   -2026.9638    71.510128    61.929588    35.677403    31538.619   -310786.89 
     580    435.02108     157978.9     71.50684    71.506841    35.675763          120   -56386.736   -60616.098   -4223.7645    4330.0001    31898.257     -313.036     71.50684    61.926741    35.675763   -40408.866   -310804.06 
     590    492.16977     157957.1    71.503551    71.503552    35.674122          120   -39122.109   -39813.914    10912.158    1789.4132    16030.503   -359.90745    71.503551    61.923892    35.674122   -22674.622   -310923.78 
     600    438.98039     157935.3    71.500262    71.500263    35.672481          120    14445.934    18764.616    74487.874    -4432.489   -34309.627   -3926.2364    71.500262    61.921044    35.672481    35899.474   -310815.65 
     610    527.39872    157913.59    71.496986    71.496986    35.670846          120   -19939.744   -18474.152    16495.401    281.93814    617.77182   -1556.7115    71.496986    61.918207    35.670846   -7306.1646   -311001.59 
     620    453.44815    157891.87    71.493708    71.493708    35.669211          120   -60407.598   -58850.971   -45712.923    4695.0564    40085.092    2717.5795    71.493708    61.915368    35.669211   -54990.497   -310851.21 
     630    522.27412    157870.05    71.490414    71.490415    35.667568          120     1299.508    3627.2787    17245.485    -1949.234   -13229.856   -3248.8701    71.490414    61.912515    35.667568    7390.7572   -310997.34 
     640    478.82756    157848.22    71.487118    71.487119    35.665923          120    21768.199    21012.149    29519.172   -3040.1304    -29045.82   -5522.9704    71.487118    61.909661    35.665923     24099.84   -310911.64 
     650    485.50465     157826.4    71.483824    71.483824     35.66428          120   -44017.953   -39660.384   -53404.247    3406.0668    29988.365    2920.1855    71.483824    61.906808     35.66428   -45694.195   -310929.91 
     660    500.64099    157804.46    71.480511    71.480512    35.662627          120   -32129.201   -25662.595   -50463.449    1745.0668    22578.923    1918.3752    71.480511    61.903939    35.662627   -36085.082   -310965.93 
     670    440.91868    157782.41    71.477182    71.477183    35.660966          120    37483.538    33619.253    11513.671   -3128.3584     -32808.1   -7600.3254    71.477182    61.901056    35.660966     27538.82    -310847.4 
     680    501.34258    157760.37    71.473853    71.473854    35.659305          120    4554.0876     4743.796   -30276.745    14.753927   -3745.0407   -2375.7057    71.473853    61.898173    35.659305   -6992.9537   -310978.17 
     690    409.62355    157738.27    71.470516    71.470516     35.65764          120   -49720.536   -38195.873   -90967.037    3349.8571    41896.742    6943.9102    71.470516    61.895283     35.65764   -59627.815   -310793.46 
     700    471.24962    157716.02    71.467156    71.467156    35.655964          120    16854.507     16605.76   -35244.204   -803.48746   -8287.1821   -3562.8828    71.467156    61.892373    35.655964   -594.64543   -310926.53 
     710    400.31356    157693.73    71.463789     71.46379    35.654284          120    47937.298    40624.859   -13417.216   -1939.5626   -30169.014   -8741.3305    71.463789    61.889457    35.654284    25048.314   -310785.08 
     720    415.82988    157671.46    71.460424    71.460424    35.652605          120   -23954.982   -15212.418   -85894.675    1959.3579    26800.951    4909.6635    71.460424    61.886543    35.652605   -41687.359   -310822.35 
     730    402.94016    157649.08    71.457043    71.457044    35.650918          120   -20645.567   -12324.217   -88442.385    1795.3042    25744.742    5162.6708    71.457043    61.883615    35.650918   -40470.723   -310800.59 
     740    354.92963    157626.61    71.453648    71.453649    35.649225          120    56103.229    47144.416   -24135.392   -1599.2884   -29687.192   -9596.7141    71.453648    61.880675    35.649225    26370.751   -310706.16 
     750    398.84007    157604.17    71.450258    71.450258    35.647533          120     27860.96    26374.732   -54102.552   -318.09674   -6831.0386   -3604.4103    71.450258    61.877739    35.647533    44.380164   -310802.15 
     760    309.35515    157581.73    71.446866    71.446867    35.645841          120   -34698.898   -22397.601   -114400.36    2746.8232    40013.872    10280.362    71.446866    61.874802    35.645841   -57165.618   -310621.19 
     770    373.46034    157559.19     71.44346     71.44346    35.644141          120    26554.584    24544.033   -61555.245    188.97981   -3687.0159   -2436.0171     71.44346    61.871852    35.644141   -3485.5426   -310758.27 
     780    291.73735    157536.66    71.440053    71.440054    35.642442          120    63866.076    54633.323   -29321.913   -1585.6519   -29396.073   -10595.175    71.440053    61.868902    35.642442    29725.829   -310593.14 
     790    326.13123    157514.19    71.436658    71.436658    35.640748          120   -5475.0007    753.49576   -96024.307    1676.5272    22052.076    5457.1111    71.436658    61.865961    35.640748   -33581.937   -310668.32 
     800    297.12839     157491.7    71.433257    71.433257    35.639051          120   -13064.433    -6855.774   -104389.52    2513.9381     27831.71    7715.3252    71.433257    61.863015    35.639051   -41436.576   -310611.62 
     810    273.67298    157469.17     71.42985    71.429851    35.637351          120    60219.518    52906.959   -32342.852   -1536.1861    -24973.39   -9544.4373     71.42985    61.860065    35.637351    26927.875   -310566.26 
     820    309.25162    157446.73    71.426457    71.426458    35.635659          120    40577.512    37749.645   -51874.688   -435.49906   -9802.8219   -4706.3923    71.426457    61.857127    35.635659    8817.4897   -310643.36 
     830    237.97383    157424.36    71.423074    71.423075    35.633971          120   -22497.307   -15762.603   -118103.69    3902.9833    37476.188    11008.804    71.423074    61.854197    35.633971     -52121.2   -310498.25 
     840    311.66648    157401.97    71.419688    71.419688    35.632281          120    24964.676    25435.324   -64766.334    262.42695    2526.7031   -715.84876    71.419688    61.851264    35.632281   -4788.7779   -310653.53 
     850    236.40778    157379.65    71.416311    71.416312    35.630597          120    64471.209    59965.559   -16771.969   -2443.5994   -27668.874   -10494.692    71.416311    61.848341    35.630597    35888.266   -310499.83 
     860    299.24044    157357.48    71.412958    71.412959    35.628924          120    7708.5164    9295.1056   -84665.609    2641.4538    17186.164    4153.0413    71.412958    61.845437    35.628924   -22553.996   -310632.02 
     870    268.38067    157335.38    71.409616    71.409616    35.627256          120   -7840.3592    -4261.356   -103949.35    3807.2291    30933.694    8269.7269    71.409616    61.842542    35.627256    -38683.69   -310569.57 
     880    283.49317    157313.35    71.406282    71.406283    35.625593          120    54056.548    55083.754   -15442.289   -2646.7266   -18794.113   -7506.0255    71.406282    61.839655    35.625593    31232.671   -310602.31 
     890    320.28619    157291.52    71.402979     71.40298    35.623945          120    45932.252    46883.516   -24946.747   -1166.6985   -11454.825    -5003.093    71.402979    61.836795    35.623945    22623.007   -310679.89 
     900    282.70485    157269.91    71.399708    71.399709    35.622313          120   -5930.5059   -6027.3189   -107842.65     5928.528    34337.046    8832.8797    71.399708    61.833962    35.622313   -39933.493   -310602.81 
     910    370.72913    157248.43    71.396458    71.396459    35.620692          120    26328.652    29569.863   -50836.701     946.4368    8244.3749    760.21622    71.396458    61.831147    35.620692    1687.2715   -310785.67 
     920     314.5287    157227.19    71.393243    71.393244    35.619088          120    62248.596    69454.412    19722.386   -4597.1928   -22355.813   -7934.2327    71.393243    61.828363    35.619088    50475.132   -310669.88 
     930    405.80373    157206.31    71.390082    71.390083    35.617511          120    25676.072    25971.526   -55692.289    2941.4572    12644.086    1979.6031    71.390082    61.825625    35.617511   -1348.2301   -310859.56 
     940    376.94154    157185.72    71.386967    71.386967    35.615956          120    10913.389     7103.441   -90781.031    6622.0766     28386.35    6085.1843    71.386967    61.822927    35.615956   -24254.734   -310800.08 
     950    426.26651    157165.45    71.383897    71.383898    35.614425          120    55497.705    65730.768    19307.883   -3629.6246    -10006.54   -4064.2015    71.383897    61.820269    35.614425    46845.452   -310902.63 
     960    455.11893    157145.64    71.380898    71.380898    35.612928          120    56493.976    66728.742    20945.261   -3263.8956   -7977.7211   -3538.8758    71.380898    61.817672    35.612928    48055.993   -310963.49 
     970    441.57866    157126.34    71.377976    71.377977    35.611471          120    23036.249    14242.778   -81374.121     7866.871    24067.249    4198.3652    71.377976    61.815141    35.611471   -14698.365   -310936.39 
     980    521.14333     157107.5    71.375122    71.375123    35.610047          120    42196.214    42520.167   -23287.011     2633.894    9492.5159    871.54516    71.375122     61.81267    35.610047    20476.457   -311102.38 
     990    466.87677    157089.21    71.372353    71.372353    35.608665          120    70022.453    89231.934    68685.588   -6461.6485   -9597.9068   -3314.5374    71.372353    61.810271    35.608665    75979.992   -310991.87 
    1000    554.55617    157071.62    71.369689    71.369689    35.607336          120    50609.957    51536.133   -9439.6836    2220.4476    7689.2281    25.341252    71.369689    61.807964    35.607336    30902.135   -311176.22 
Loop time of 294.807 on 1 procs for 1000 steps with 15232 atoms

Performance: 0.029 ns/day, 818.910 hours/ns, 3.392 timesteps/s
100.0% CPU use with 1 MPI tasks x no OpenMP threads

MPI task timing breakdown:
Section |  min time  |  avg time  |  max time  |%varavg| %total
---------------------------------------------------------------
Pair    | 267.41     | 267.41     | 267.41     |   0.0 | 90.71
Bond    | 0.016519   | 0.016519   | 0.016519   |   0.0 |  0.01
Kspace  | 10.967     | 10.967     | 10.967     |   0.0 |  3.72
Neigh   | 9.8889     | 9.8889     | 9.8889     |   0.0 |  3.35
Comm    | 0.27123    | 0.27123    | 0.27123    |   0.0 |  0.09
Output  | 0.010659   | 0.010659   | 0.010659   |   0.0 |  0.00
Modify  | 6.1598     | 6.1598     | 6.1598     |   0.0 |  2.09
Other   |            | 0.0841     |            |       |  0.03

Nlocal:    15232 ave 15232 max 15232 min
Histogram: 1 0 0 0 0 0 0 0 0 0
Nghost:    48033 ave 48033 max 48033 min
Histogram: 1 0 0 0 0 0 0 0 0 0
Neighs:    1.10417e+07 ave 1.10417e+07 max 1.10417e+07 min
Histogram: 1 0 0 0 0 0 0 0 0 0

Total # of neighbors = 11041688
Ave neighs/atom = 724.901
Ave special neighs/atom = 0.0504202
Neighbor list builds = 33
Dangerous builds = 0
PPPM initialization ...
  using 12-bit tables for long-range coulomb (../kspace.cpp:321)
  G vector (1/distance) = 0.203221
  grid = 36 50 24
  stencil order = 5
  estimated absolute RMS force accuracy = 0.00095033
  estimated relative force accuracy = 6.59967e-05
  using double precision FFTs
  3d grid and FFT values/proc = 65395 43200
Setting up Verlet run ...
  Unit style    : metal
  Current step  : 0
  Time step     : 0.0001
Per MPI rank memory allocation (min/avg/max) = 165.3 | 165.3 | 165.3 Mbytes
Step Temp Volume Cella Cellb Cellc CellGamma Pxx Pyy Pzz Pxy Pxz Pyz Lx Ly Lz Press PotEng 
       0    554.55617    157071.62    71.369689    71.369689    35.607336          120    50612.937    51539.154   -9435.4478    2220.4596    7689.2357    25.316746    71.369689    61.807964    35.607336    30905.548   -311176.17 
     100     452.2383    156941.12    71.349918    71.349919    35.597472          120    93142.679    110339.89    123094.14   -1623.1702    12194.789    1528.1193    71.349918    61.790842    35.597472     108858.9   -311012.76 
Loop time of 28.6517 on 1 procs for 100 steps with 15232 atoms

Performance: 0.030 ns/day, 795.882 hours/ns, 3.490 timesteps/s
100.0% CPU use with 1 MPI tasks x no OpenMP threads

MPI task timing breakdown:
Section |  min time  |  avg time  |  max time  |%varavg| %total
---------------------------------------------------------------
Pair    | 25.665     | 25.665     | 25.665     |   0.0 | 89.57
Bond    | 0.0016527  | 0.0016527  | 0.0016527  |   0.0 |  0.01
Kspace  | 1.0874     | 1.0874     | 1.0874     |   0.0 |  3.80
Neigh   | 1.2498     | 1.2498     | 1.2498     |   0.0 |  4.36
Comm    | 0.027843   | 0.027843   | 0.027843   |   0.0 |  0.10
Output  | 0.00010109 | 0.00010109 | 0.00010109 |   0.0 |  0.00
Modify  | 0.61178    | 0.61178    | 0.61178    |   0.0 |  2.14
Other   |            | 0.008531   |            |       |  0.03

Nlocal:    15232 ave 15232 max 15232 min
Histogram: 1 0 0 0 0 0 0 0 0 0
Nghost:    48110 ave 48110 max 48110 min
Histogram: 1 0 0 0 0 0 0 0 0 0
Neighs:    1.10439e+07 ave 1.10439e+07 max 1.10439e+07 min
Histogram: 1 0 0 0 0 0 0 0 0 0

Total # of neighbors = 11043870
Ave neighs/atom = 725.044
Ave special neighs/atom = 0.0504202
Neighbor list builds = 4
Dangerous builds = 0
 
All done!
Total wall time: 0:07:57
