LAMMPS (16 Mar 2018)
Reading data file ...
  triclinic box = (0 0 0) to (9.208 7.97436 18.376) with tilt (-4.604 0 0)
  1 by 1 by 1 MPI processor grid
  reading atoms ...
  119 atoms
  scanning bonds ...
  2 = max bonds/atom
  scanning angles ...
  1 = max angles/atom
  reading bonds ...
  2 bonds
  reading angles ...
  1 angles
Finding 1-2 1-3 1-4 neighbors ...
  special bond factors lj:   0          0          0         
  special bond factors coul: 0          0          0         
  2 = max # of 1-2 neighbors
  1 = max # of 1-3 neighbors
  1 = max # of 1-4 neighbors
  2 = max # of special neighbors
Replicating atoms ...
  triclinic box = (0 0 0) to (73.664 63.7949 36.752) with tilt (-36.832 0 0)
  1 by 1 by 1 MPI processor grid
  15232 atoms
  256 bonds
  128 angles
Finding 1-2 1-3 1-4 neighbors ...
  special bond factors lj:   0          0          0         
  special bond factors coul: 0          0          0         
  2 = max # of 1-2 neighbors
  1 = max # of 1-3 neighbors
  1 = max # of 1-4 neighbors
  2 = max # of special neighbors
  Time spent = 0.00305796 secs
PPPM initialization ...
WARNING: System is not charge neutral, net charge = -0.256 (../kspace.cpp:302)
  using 12-bit tables for long-range coulomb (../kspace.cpp:321)
  G vector (1/distance) = 0.201677
  grid = 36 50 24
  stencil order = 5
  estimated absolute RMS force accuracy = 0.00104623
  estimated relative force accuracy = 7.26566e-05
  using double precision FFTs
  3d grid and FFT values/proc = 65395 43200
Neighbor list info ...
  update every 1 steps, delay 0 steps, check yes
  max neighbors/atom: 2000, page size: 100000
  master list distance cutoff = 15.3
  ghost atom cutoff = 15.3
  binsize = 7.65, bins = 15 9 5
  3 neighbor lists, perpetual/occasional/extra = 3 0 0
  (1) pair morse, perpetual
      attributes: half, newton on
      pair build: half/bin/newton/tri
      stencil: half/bin/3d/newton/tri
      bin: standard
  (2) pair buck, perpetual, copy from (1)
      attributes: half, newton on
      pair build: copy
      stencil: none
      bin: none
  (3) pair lj/cut/coul/long, perpetual, copy from (1)
      attributes: half, newton on
      pair build: copy
      stencil: none
      bin: none
Setting up cg style minimization ...
  Unit style    : metal
  Current step  : 0
WARNING: Energy due to 1 extra global DOFs will be included in minimizer energies
Per MPI rank memory allocation (min/avg/max) = 158.3 | 158.3 | 158.3 Mbytes
Step Temp Volume Cella Cellb Cellc CellGamma Pxx Pyy Pzz Pxy Pxz Pyz Lx Ly Lz Press PotEng 
       0            0    172711.88       73.664    73.664001       36.752          120   -204287.19   -203921.25   -275759.15    14.409285    148.37018    61.948388       73.664    63.794896       36.752    -227989.2   -308818.52 
      10            0    172194.26    73.590336    73.590337    36.715248          120   -198242.94   -198866.33   -269748.85    588.97858    1435.5224   -450.30382    73.590336    63.731101    36.715248   -222286.04   -308926.98 
      20            0    171677.68    73.516672    73.516673    36.678496          120   -191077.53   -192692.18   -263360.01     1165.624    2727.6277   -964.43094    73.516672    63.667306    36.678496   -215709.91   -308996.53 
      30            0    171162.13    73.443008    73.443009    36.641744          120   -183888.41   -186498.51   -257148.71    1744.8482     4025.246   -1480.2541    73.443008    63.603511    36.641744   -209178.54   -309067.82 
      40            0    170647.62    73.369344    73.369345    36.604992          120   -176591.87    -180202.5   -250775.47    2326.1933     5327.957   -1999.7045    73.369344    63.539716    36.604992   -202523.28   -309134.35 
      50            0    170134.13     73.29568    73.295681     36.56824          120    -169176.6   -173791.05   -244188.88    2910.1319    6636.4853   -2521.1481     73.29568    63.475922     36.56824   -195718.84    -309197.3 
      60            0    169621.68    73.222016    73.222017    36.531488          120   -161832.44   -167452.54   -237984.89    3497.0297    7948.4474   -3043.5901    73.222016    63.412127    36.531488   -189089.96   -309264.18 
      70            0    169110.26    73.148352    73.148353    36.494736          120   -154313.51   -160945.26   -231382.59     4084.979    9266.4393   -3568.4282    73.148352    63.348332    36.494736   -182213.79   -309324.31 
      80            0    168599.87    73.074688    73.074689    36.457984          120   -146727.36   -154375.08   -224656.79    4675.5959    10589.912   -4094.8955    73.074688    63.284537    36.457984   -175253.08   -309381.93 
      90            0     168090.5    73.001024    73.001025    36.421232          120   -138997.51   -147664.91   -217736.34    5268.6837    11918.343   -4623.8942    73.001024    63.220742    36.421232   -168132.92   -309436.17 
     100            0    167582.16     72.92736    72.927361     36.38448          120   -131385.06   -141075.34   -210773.05    5864.7862    13252.159   -5154.2584     72.92736    63.156947     36.38448   -161077.81   -309492.35 
     110            0    167074.85    72.853696    72.853697    36.347728          120   -123468.91   -134187.56   -203856.14    6462.1562    14591.394   -5687.5787    72.853696    63.093152    36.347728   -153837.54   -309542.61 
     120            0    166568.56    72.780032    72.780033    36.310976          120   -115499.94   -127250.56   -196831.36    7061.2631    15935.427   -6222.4159    72.780032    63.029357    36.310976   -146527.29   -309590.79 
     130            0     166063.3    72.706368    72.706369    36.274224          120   -107384.19    -120171.3   -189705.02     7663.649    17284.767   -6759.4066    72.706368    62.965562    36.274224   -139086.84   -309635.99 
     140            0    165559.06    72.632704    72.632705    36.237472          120   -99200.305   -113027.96   -182382.46    8268.2731    18639.438   -7299.0209    72.632704    62.901767    36.237472   -131536.91   -309678.32 
     150            0    165055.84     72.55904    72.559041     36.20072          120    -90918.86   -105789.98   -175057.03    8875.3836     19999.81   -7840.2227     72.55904    62.837973     36.20072   -123921.96   -309718.81 
     160            0    164553.64    72.485376    72.485377    36.163968          120   -82563.292    -98483.38   -167733.11    9484.4764     21364.74   -8382.6618    72.485376    62.774178    36.163968   -116259.93   -309757.34 
     170            0    164052.47    72.411712    72.411713    36.127216          120   -74037.819   -91010.759   -160288.14     10095.63    22735.483   -8927.9588    72.411712    62.710383    36.127216   -108445.57   -309792.48 
     180            0    163552.31    72.338048    72.338049    36.090464          120   -65477.831   -83505.203   -152659.46    10709.626    24111.391   -9475.5099    72.338048    62.646588    36.090464    -100547.5   -309825.43 
     190            0    163053.16    72.264384    72.264385    36.053712          120   -56819.212   -75906.737   -145004.17    11325.976    25492.808   -10025.227    72.264384    62.582793    36.053712   -92576.705   -309855.98 
     200            0    162555.04     72.19072    72.190721     36.01696          120   -48088.266   -68239.589   -137452.01    11944.634    26878.889    -10577.11     72.19072    62.518998     36.01696   -84593.288   -309885.34 
     210            0    162057.93    72.117056    72.117057    35.980208          120   -39178.258   -60397.247   -129634.38    12565.966    28270.536   -11130.742    72.117056    62.455203    35.980208   -76403.296   -309910.55 
     220            0    161561.83    72.043392    72.043393    35.943456          120   -30205.018    -52497.11   -121651.08    13189.161    29667.374   -11685.864    72.043392    62.391408    35.943456   -68117.737   -309933.09 
     230            0    161066.75    71.969728    71.969729    35.906704          120   -21035.612   -44403.637   -113441.92    13815.548    31069.445   -12242.698    71.969728    62.327613    35.906704   -59627.055   -309951.47 
     240            0    160572.68    71.896064    71.896065    35.869952          120   -11794.496   -36241.784   -105241.89    14442.673    32476.119   -12802.008    71.896064    62.263818    35.869952   -51092.725   -309968.15 
     250            0    160079.62      71.8224    71.822401      35.8332          120   -2654.2413   -28185.619   -96951.481    15070.759    33887.261   -13362.707      71.8224    62.200024      35.8332   -42597.114   -309985.14 
     260            0    159587.58    71.748736    71.748737    35.796448          120    6151.9357   -20466.853   -90464.359    15700.772     35302.34   -13925.197    71.748736    62.136229    35.796448   -34926.426   -310036.33 
     270            0    159096.54    71.675072    71.675073    35.759696          120    15712.256   -11997.286   -82006.734    16332.743    36720.305   -14488.438    71.675072    62.072434    35.759696   -26097.255   -310045.31 
     277            0    159068.85    71.670914    71.670914    35.757621          120    16251.906   -11519.157   -81526.648    16368.436     36800.68    -14520.35    71.670914    62.068833    35.757621   -25597.966   -310045.79 
Loop time of 149.796 on 1 procs for 277 steps with 15232 atoms

100.0% CPU use with 1 MPI tasks x no OpenMP threads

Minimization stats:
  Stopping criterion = linesearch alpha is zero
  Energy initial, next-to-last, final = 
          -308818.5199     -310045.800013     -310045.800013
  Force two-norm initial, final = 73731.1 7918.09
  Force max component initial, final = 73730.9 7836.66
  Final line search alpha, max atom move = 1.90147e-16 1.49012e-12
  Iterations, force evaluations = 277 383

MPI task timing breakdown:
Section |  min time  |  avg time  |  max time  |%varavg| %total
---------------------------------------------------------------
Pair    | 133.74     | 133.74     | 133.74     |   0.0 | 89.28
Bond    | 0.0064065  | 0.0064065  | 0.0064065  |   0.0 |  0.00
Kspace  | 4.1795     | 4.1795     | 4.1795     |   0.0 |  2.79
Neigh   | 6.9897     | 6.9897     | 6.9897     |   0.0 |  4.67
Comm    | 0.10072    | 0.10072    | 0.10072    |   0.0 |  0.07
Output  | 0.0029793  | 0.0029793  | 0.0029793  |   0.0 |  0.00
Modify  | 0          | 0          | 0          |   0.0 |  0.00
Other   |            | 4.776      |            |       |  3.19

Nlocal:    15232 ave 15232 max 15232 min
Histogram: 1 0 0 0 0 0 0 0 0 0
Nghost:    47648 ave 47648 max 47648 min
Histogram: 1 0 0 0 0 0 0 0 0 0
Neighs:    1.08767e+07 ave 1.08767e+07 max 1.08767e+07 min
Histogram: 1 0 0 0 0 0 0 0 0 0

Total # of neighbors = 10876672
Ave neighs/atom = 714.067
Ave special neighs/atom = 0.0504202
Neighbor list builds = 24
Dangerous builds = 0
PPPM initialization ...
  using 12-bit tables for long-range coulomb (../kspace.cpp:321)
  G vector (1/distance) = 0.203017
  grid = 36 50 24
  stencil order = 5
  estimated absolute RMS force accuracy = 0.00096252
  estimated relative force accuracy = 6.68433e-05
  using double precision FFTs
  3d grid and FFT values/proc = 65395 43200
Setting up Verlet run ...
  Unit style    : metal
  Current step  : 0
  Time step     : 0.0001
Per MPI rank memory allocation (min/avg/max) = 163 | 163 | 163 Mbytes
Step Temp Volume Cella Cellb Cellc CellGamma Pxx Pyy Pzz Pxy Pxz Pyz Lx Ly Lz Press PotEng 
       0          200    159068.85    71.670914    71.670914    35.757621          120    18914.462   -8799.2884   -78837.214    16405.441    36819.146   -14530.746    71.670914    62.068833    35.757621   -22907.347   -310045.03 
      10    285.78566    159068.62     71.67088     71.67088    35.757604          120   -48452.134   -42165.151   -138032.75   -2609.6145   -6866.7988    2640.6482     71.67088    62.068803    35.757604   -76216.679   -310221.79 
      20    216.11709     159067.9    71.670771    71.670771     35.75755          120   -93014.129   -65445.793   -175947.75   -15685.096   -34839.767     14516.09    71.670771    62.068709     35.75755   -111469.22   -310072.34 
      30    266.38444    159066.64    71.670583    71.670583    35.757456          120   -5094.0272   -21273.521   -95664.248    9629.5785    22309.452   -8391.8881    71.670583    62.068546    35.757456   -40677.265    -310173.2 
      40    260.94625    159064.92    71.670324    71.670325    35.757327          120   -692.09581   -18394.646   -88608.687    11743.319    25188.961   -10276.644    71.670324    62.068322    35.757327   -35898.476   -310159.86 
      50    247.31688    159062.74    71.669997    71.669997    35.757164          120   -91154.522   -66197.979   -166579.32   -14309.505   -32244.695    13187.268    71.669997    62.068038    35.757164   -107977.27    -310130.1 
      60    316.88211    159060.04     71.66959    71.669591    35.756961          120   -60402.617   -52171.584   -134040.85   -5580.2428    -10579.48    5506.1518     71.66959    62.067687    35.756961   -82205.017   -310272.86 
      70    256.45096    159056.83    71.669109    71.669109    35.756721          120    9451.3144   -14553.702   -63405.251    16235.873    35545.084   -13571.425    71.669109     62.06727    35.756721    -22835.88   -310146.46 
      80    365.22014    159053.18     71.66856     71.66856    35.756447          120   -49386.307   -46967.508   -113090.62   -497.21664   -2191.7227    749.41279     71.66856    62.066794    35.756447   -69814.812   -310370.38 
      90     306.9982    159049.03    71.667937    71.667938    35.756136          120   -102074.04   -79595.306   -157978.76   -16974.127   -34671.021    14663.088    71.667937    62.066255    35.756136   -113216.03   -310248.11 
     100    396.38208    159044.36    71.667235    71.667236    35.755786          120   -25727.084    -35727.27    -73944.94     7992.408    17416.565   -5755.8189    71.667235    62.065647    35.755786   -45133.098   -310431.69 
     110    389.86254    159039.22    71.666464    71.666464    35.755401          120   -13121.007   -28833.233   -52634.342    13006.482    27241.625    -9453.426    71.666464    62.064979    35.755401   -31529.527   -310416.68 
     120    414.15296    159033.63    71.665624    71.665624    35.754982          120   -95459.832   -81230.132   -132346.62   -13616.351   -27414.386    10512.592    71.665624    62.064251    35.754982    -103012.2   -310465.81 
     130    475.42766    159027.53    71.664707    71.664707    35.754525          120   -80043.702   -71774.024   -106374.39    -7534.561   -15539.521    5784.3204    71.664707    62.063457    35.754525   -86064.037   -310591.77 
     140      432.485    159020.93    71.663716    71.663717     35.75403          120   -14097.477    -29104.02   -20074.495    15892.888    32726.056   -9606.9618    71.663716    62.062599     35.75403   -21091.997   -310502.24 
     150    534.36205    159013.91    71.662661    71.662662    35.753504          120    -56917.12   -59441.854   -62321.675    1135.8451    3167.8223   -190.85136    71.662661    62.061686    35.753504   -59560.217   -310713.63 
     160    461.93368    159006.43    71.661538    71.661538    35.752944          120   -109194.13   -97150.678   -120109.32   -17313.158   -34692.861    10167.422    71.661538    62.060713    35.752944   -108818.04   -310564.13 
     170    550.90821    158998.47    71.660342    71.660342    35.752347          120   -48714.642   -51555.979   -28436.339    6267.9843    11460.224   -2466.9227    71.660342    62.059677    35.752347    -42902.32   -310749.66 
     180    505.55203    158990.09    71.659083    71.659083    35.751719          120   -29288.331   -37364.291     10048.66    13698.188    27757.339   -5574.9626    71.659083    62.058587    35.751719   -18867.987   -310657.53 
     190    531.39996    158981.33    71.657767    71.657767    35.751062          120   -92931.916   -89906.011   -78379.439   -11733.455   -22308.435    5033.0725    71.657767    62.057447    35.751062   -87072.455    -310713.2 
     200    548.16079    158972.15    71.656387    71.656388    35.750374          120   -87505.554   -84398.025    -61650.34   -8838.5112   -18548.666    3674.6748    71.656387    62.056252    35.750374   -77851.306   -310750.22 
     210    499.97633    158962.57    71.654948    71.654948    35.749656          120   -32258.107   -33952.085    44877.539    14625.426    27313.613   -3365.4445    71.654948    62.055006    35.749656   -7110.8844   -310652.91 
     220    569.27936    158952.67    71.653461    71.653462    35.748914          120   -56849.646   -57659.377    6528.8461    3185.0495    6144.7548   -687.87765    71.653461    62.053718    35.748914   -35993.392   -310799.47 
     230    476.80331    158942.46    71.651927    71.651927    35.748149          120   -97516.623    -100293.4   -71301.252    -15914.31   -29603.719    3061.8373    71.651927    62.052389    35.748149   -89703.758   -310610.87 
     240    552.04769    158931.91    71.650341    71.650341    35.747357          120   -55350.442    -53705.51    27870.804    3955.2435    5937.4631    573.36831    71.650341    62.051016    35.747357   -27061.716   -310769.99 
     250     470.4371    158921.09    71.648715    71.648715    35.746546          120   -34928.747   -28538.055    82730.244    13379.373    22160.582   -640.49284    71.648715    62.049608    35.746546    6421.1473    -310604.5 
     260     495.3792    158910.05    71.647057    71.647057    35.745719          120    -75180.04   -80703.586    -18709.41   -8408.1398   -14241.663   -505.60347    71.647057    62.048172    35.745719   -58197.679   -310660.09 
     270    466.79257    158898.78    71.645362    71.645363    35.744873          120   -74994.106    -82865.91   -15329.412   -9194.0585   -14770.859    418.69598    71.645362    62.046704    35.744873   -57729.809   -310604.88 
     280    416.93695    158887.29    71.643635    71.643635    35.744011          120   -35583.455   -23605.676    107120.89    11752.701    16090.529    1962.0669    71.643635    62.045208    35.744011    15977.254   -310505.92 
     290    447.45157    158875.66    71.641887    71.641888     35.74314          120   -46258.558   -40650.233    72984.996    4617.5965    5432.9001   -86.984123    71.641887    62.043695     35.74314   -4641.2652   -310573.79 
     300    340.14066    158863.91    71.640121    71.640122    35.742259          120    -74161.72   -92160.684   -23819.852   -12563.051   -15918.953   -2950.4791    71.640121    62.042166    35.742259   -63380.752   -310356.06 
     310    397.38645    158852.01    71.638332    71.638333    35.741366          120   -48794.754   -46357.558    72819.754    1535.9901    609.47853    1279.1062    71.638332    62.040616    35.741366    -7444.186   -310478.97 
     320    289.64432    158840.02     71.63653    71.636531    35.740467          120   -31372.651   -11884.897    142055.09    10746.519    9487.6012     3565.768     71.63653    62.039055    35.740467    32932.514   -310260.04 
     330    321.08976    158828.01    71.634724    71.634724    35.739566          120   -56538.886   -66598.717    36123.998   -4619.4477   -4115.2257   -3077.5065    71.634724    62.037491    35.739566   -29004.535   -310329.26 
     340    268.00576    158815.92    71.632907    71.632908    35.738659          120   -60640.809   -78024.997    20156.246   -7328.4706    -5538.058   -3452.2741    71.632907    62.035918    35.738659   -39503.186   -310222.53 
     350    243.24009    158803.79    71.631082    71.631083    35.737749          120    -32334.72   -13311.434    147807.67    7289.2621    1695.2768    4439.0706    71.631082    62.034338    35.737749    34053.839   -310173.89 
     360    266.97007    158791.67    71.629261    71.629261     35.73684          120   -37120.744   -26131.755    124574.47    4085.7578    488.13451    1735.7877    71.629261     62.03276     35.73684    20440.658   -310225.36 
     370    190.37101    158779.58    71.627443    71.627443    35.735933          120   -60741.087   -85205.896    14472.921   -7181.3959      473.729    -6495.399    71.627443    62.031186    35.735933   -43824.687   -310068.06 
     380    267.93483    158767.47    71.625622    71.625622    35.735025          120    -43085.39   -42376.621    95388.235    94.616211   -1512.1221   -207.14543    71.625622    62.029609    35.735025    3308.7414   -310229.49 
     390    183.89247     158755.4    71.623806    71.623806    35.734119          120   -25421.421   -1724.5856    175496.23    5889.3931   -6007.8008    5733.4884    71.623806    62.028036    35.734119    49450.075   -310055.54 
     400    260.11778    158743.41    71.622003    71.622003    35.733219          120   -46986.469   -55598.245    74641.623   -1408.9886    2603.2709   -3306.8111    71.622003    62.026474    35.733219   -9314.3636   -310213.26 
     410    219.27926    158731.46    71.620206    71.620206    35.732323          120   -54738.257   -73836.714    36762.476   -3444.9845    7338.4855   -6284.7534    71.620206    62.024918    35.732323   -30604.165   -310127.86 
     420    246.60409    158719.55    71.618414    71.618415    35.731429          120   -24895.243   -7996.1681    159178.65    2651.8103   -9747.8471    4141.4668    71.618414    62.023367    35.731429    42095.745   -310183.38 
     430    278.06864    158707.74    71.616638    71.616639    35.730543          120   -26221.013   -14072.931    148562.04    1941.6931   -8018.2733    2528.4913    71.616638    62.021829    35.730543    36089.366   -310247.38 
     440    240.79655    158696.04    71.614878    71.614879    35.729665          120   -54826.466   -74686.264    33270.739   -1775.3399    14947.418   -7265.9328    71.614878    62.020305    35.729665   -32080.664   -310168.57 
     450    330.03566     158684.4    71.613127    71.613127    35.728791          120   -36619.907   -38705.104    94050.061   -115.77293    1431.9311   -1576.2883    71.613127    62.018788    35.728791    6241.6836   -310351.82 
     460    261.27588    158672.85    71.611389     71.61139    35.727924          120   -10552.888    7669.5547     176711.1     1171.411   -19717.313    4745.1559    71.611389    62.017283    35.727924    57942.589   -310207.57 
     470     358.3893    158661.44    71.609674    71.609674    35.727068          120   -36453.077   -40310.837    86955.812    319.47114    5033.8163   -2828.3124    71.609674    62.015797    35.727068    3397.2994   -310407.22 
     480     310.4773    158650.14    71.607973    71.607973    35.726219          120   -52166.725   -66889.837    35002.905    271.32003    20602.711   -5725.2932    71.607973    62.014324    35.726219   -28017.886   -310306.07 
     490     365.7344    158638.91    71.606283    71.606283    35.725376          120   -11724.445   -2829.8578    141759.22   -174.80192   -15779.875    2123.7209    71.606283    62.012861    35.725376    42401.639   -310418.46 
     500    380.89837    158627.81    71.604613    71.604614    35.724543          120   -9322.3442   -349.56176    139728.78   -171.27891   -16265.441    1225.1659    71.604613    62.011415    35.724543    43352.291   -310448.32 
     510    369.31223    158616.85    71.602964    71.602964     35.72372          120   -51772.959   -62423.688    29796.256    1473.6261    24659.207    -4873.273    71.602964    62.009986     35.72372   -28133.464   -310422.49 
     520    450.54678    158605.95    71.601324    71.601325    35.722902          120   -32371.901   -35934.953    67796.376    533.68644    7062.0521   -1575.5577    71.601324    62.008566    35.722902   -170.15928    -310589.1 
     530     393.1065    158595.14    71.599698    71.599698    35.722091          120    7086.2766    16234.296    142166.84   -1421.6727   -27733.201    1353.3689    71.599698    62.007158    35.722091     55162.47   -310468.24 
     540    500.18148    158584.46     71.59809    71.598091    35.721289          120   -26054.549   -25931.168    66416.875    616.35431    4212.2639    -1935.901     71.59809    62.005765    35.721289    4810.3859   -310688.59 
     550    445.33497    158573.85    71.596493    71.596494    35.720492          120   -54260.976   -61140.733    5792.5053    2293.0682    29863.981   -2444.5512    71.596493    62.004383    35.720492   -36536.401   -310573.46 
     560     522.6662    158563.27    71.594901    71.594902    35.719698          120    -1162.279    2033.6457    88487.099   -1046.0447   -15680.245   -565.92074    71.594901    62.003004    35.719698    29786.155   -310732.66 
     570    517.96377    158552.77     71.59332     71.59332    35.718909          120     8382.849    12537.367    92408.394   -1308.7919   -22041.991   -1218.2875     71.59332    62.001634    35.718909    37776.203   -310722.32 
     580    526.53377    158542.33    71.591749     71.59175    35.718125          120    -48172.75   -49805.571   -6807.8047    2315.1678     27427.42   -1154.6663    71.591749    62.000274    35.718125   -34928.708   -310739.95 
     590    584.87572     158531.9    71.590178    71.590179    35.717341          120   -30274.705   -29392.976    8628.7842    902.29863    13885.091   -779.37195    71.590178    61.998914    35.717341   -17012.965   -310861.12 
     600    531.00939    158521.46    71.588608    71.588608    35.716558          120    25617.078    27467.067    74922.472   -1930.9769   -30051.303   -2575.5088    71.588608    61.997554    35.716558    42668.872    -310750.3 
     610      622.861    158511.07    71.587044    71.587044    35.715778          120   -9556.1805   -8317.9236    15735.398    445.11389    203.11053   -1424.2587    71.587044    61.996199    35.715778    -712.9022   -310942.05 
     620    547.63848    158500.68     71.58548     71.58548    35.714997          120   -51396.628   -47161.954   -48918.518    2262.1635    35017.046    1297.5963     71.58548    61.994845    35.714997   -49159.033   -310787.96 
     630    621.28316    158490.24    71.583908    71.583908    35.714213          120    11842.253    13572.164    17263.906   -822.84214   -11707.674    -2483.183    71.583908    61.993483    35.714213    14226.108   -310942.76 
     640     577.8286     158479.8    71.582335    71.582336    35.713428          120    32998.107    30659.258    30984.778   -940.08236   -25958.285   -4067.4446    71.582335    61.992121    35.713428    31547.381   -310855.73 
     650    587.95583    158469.36    71.580764    71.580764    35.712644          120   -33905.723   -28109.258   -55575.686    1674.7278      26032.5    1772.7624    71.580764     61.99076    35.712644   -39196.889   -310879.91 
     660    605.21545    158458.86    71.579184    71.579184    35.711856          120   -22122.507    -14479.27   -52296.993    623.26797    19820.311    1170.3029    71.579184    61.989392    35.711856   -29632.923   -310919.05 
     670    545.89439    158448.32    71.577595    71.577596    35.711064          120    48510.082    43319.058    13687.784   -745.60762   -29334.943   -5683.8691    71.577595    61.988017    35.711064    35172.308   -310799.96 
     680    609.90261    158437.77    71.576008    71.576008    35.710271          120    15477.517    15236.678    -29748.99    492.53998   -3935.1132   -1900.9395    71.576008    61.986642    35.710271    321.73496   -310936.84 
     690    515.67055     158427.2    71.574416    71.574416    35.709477          120   -39805.054   -26620.231   -93843.825    989.33931    36615.894    5106.4999    71.574416    61.985263    35.709477   -53423.037   -310745.76 
     700    580.13726    158416.55    71.572812    71.572813    35.708677          120    27197.092    26897.062   -34585.039    61.995567   -7668.4354   -2665.2617    71.572812    61.983874    35.708677    6503.0381   -310883.59 
     710    506.24947    158405.88    71.571205    71.571205    35.707875          120    58895.146    50180.811   -10908.679     295.1072   -27212.111   -6563.5118    71.571205    61.982482    35.707875    32722.426   -310735.05 
     720    522.19902    158395.21    71.569598    71.569599    35.707074          120   -13779.252   -4501.5828   -87442.357    573.16031    22903.984    3771.4056    71.569598    61.981091    35.707074   -35241.064   -310772.63 
     730    507.55173    158384.49    71.567983    71.567983    35.706268          120   -11203.833   -1562.8018   -90393.123    407.37489    22137.119    4054.3397    71.567983    61.979692    35.706268   -34386.586   -310746.48 
     740    457.52877    158373.71    71.566359     71.56636    35.705458          120    66490.275    56367.902   -22127.104    673.15658   -26465.136   -7050.9861    71.566359    61.978286    35.705458    33577.024   -310646.97 
     750    502.33722    158362.94    71.564736    71.564737    35.704648          120    38242.584    35674.488   -53534.002     591.3101   -6631.9748   -2522.3805    71.564736     61.97688    35.704648    6794.3565      -310744 
     760    408.49616    158352.15    71.563111    71.563112    35.703837          120   -25953.179   -12179.608   -117657.61    296.64955    34232.979      7963.75    71.563111    61.975473    35.703837   -51930.132   -310553.51 
     770    475.35518     158341.3    71.561477    71.561478    35.703022          120    35792.194    33791.897   -62320.397     645.8609    -3573.489   -1524.4529    71.561477    61.974058    35.703022     2421.231   -310695.67 
     780     389.4685    158330.43     71.55984    71.559841    35.702205          120    74104.075    62976.966   -28613.794     950.2449   -25853.573   -7619.9509     71.55984     61.97264    35.702205    36155.749   -310521.22 
     790    425.30018    158319.58    71.558206    71.558206     35.70139          120    3207.6938    9651.1896   -98799.102     457.7609    18434.316    4369.7331    71.558206    61.971225     35.70139    -28646.74    -310598.8 
     800     394.1743     158308.7    71.556565    71.556566    35.700571          120    -5480.314    2057.7646   -108174.83    476.76907    23490.945    6122.7277    71.556565    61.969804    35.700571   -37199.128   -310537.09 
     810    368.77003    158297.77    71.554918    71.554919     35.69975          120    69854.763    60817.041   -33814.203    689.02281   -21638.959   -6733.1141    71.554918    61.968377     35.69975    32285.867   -310487.14 
     820    404.74203    158286.85    71.553274    71.553274    35.698929          120    49862.378    45609.408   -54498.886    742.85091   -8737.2212   -3203.0327    71.553274    61.966953    35.698929    13657.633   -310564.18 
     830    327.87507    158275.94     71.55163     71.55163    35.698109          120   -16283.261   -7644.0848   -123188.17    957.16442    31507.146    8588.0676     71.55163     61.96553    35.698109   -49038.504   -310407.18 
     840    402.87135    158264.98    71.549979    71.549979    35.697285          120    32832.881    32865.492   -68880.713    273.81054    1908.1321   -123.14329    71.549979      61.9641    35.697285   -1060.7804   -310564.82 
     850    320.87118    158254.03    71.548327    71.548328    35.696461          120    74488.089    67143.843   -20995.864    157.83535   -23640.425   -7624.5963    71.548327    61.962669    35.696461    40212.023   -310396.99 
     860    383.99998    158243.11    71.546681    71.546682     35.69564          120     14162.63    16544.068   -90054.194    1293.3306    14244.719     3442.289    71.546681    61.961244     35.69564   -19782.499   -310529.51 
     870    347.76817    158232.18    71.545035    71.545035    35.694819          120    -3341.148    2348.5466    -109345.4     1265.898    25843.152    6762.6473    71.545035    61.959818    35.694819   -36779.333    -310455.7 
     880    360.75061    158221.24    71.543386    71.543386    35.693996          120    63347.698    61406.183   -21788.133   -729.51548   -16059.532   -5548.5002    71.543386     61.95839    35.693996    34321.916   -310483.62 
     890    396.21706    158210.35    71.541745    71.541745    35.693177          120    54365.807    53152.302   -32042.715   -18.155872   -9841.7855   -3690.6158    71.541745    61.956969    35.693177    25158.465   -310558.17 
     900    353.41664    158199.52    71.540112    71.540113    35.692363          120   -4056.8394   -589.47195   -113563.44    2763.2235    28726.942    7421.9233    71.540112    61.955555    35.692363   -39403.249   -310469.89 
     910    443.67244    158188.71    71.538482    71.538483    35.691549          120    31379.647    34453.518    -57867.36    390.44027    6624.1653    869.97077    71.538482    61.954144    35.691549    2655.2684   -310656.95 
     920    381.43885    158177.96    71.536861    71.536862    35.690741          120    72038.831    74398.395    9528.7814   -2154.0034   -19194.892   -6327.8872    71.536861     61.95274    35.690741    51988.669   -310527.82 
     930    475.47959    158167.32    71.535258    71.535259    35.689941          120     28675.43    29915.645   -63592.873    1691.8208    10534.143    1950.9164    71.535258    61.951351    35.689941   -1667.2661   -310722.61 
     940    442.36936    158156.78    71.533668    71.533669    35.689148          120    9611.9815    9954.7477   -97213.139    3590.2243    23875.753    5411.6348    71.533668    61.949975    35.689148   -25882.137   -310653.64 
     950    492.23569    158146.32    71.532091    71.532092    35.688361          120    62652.376    68820.948    7328.3515   -2109.9559    -9204.287   -3365.7397    71.532091    61.948609    35.688361    46267.225   -310756.72 
     960    520.58167    158136.02    71.530539     71.53054    35.687586          120    62917.713    68970.751    8137.9162   -1877.6661   -7374.4797   -2897.0223    71.530539    61.947265    35.687586     46675.46    -310815.6 
     970    504.54385    158125.91    71.529014    71.529015    35.686826          120    18622.604    14867.418   -89102.409    4684.9845    20912.724    4054.0715    71.529014    61.945944    35.686826   -18537.462   -310782.43 
     980    587.32814    158115.95    71.527512    71.527512    35.686076          120    41755.258    43192.395   -34560.564    1510.3837    7669.8294    978.43347    71.527512    61.944643    35.686076    16795.697   -310954.38 
     990    528.84946    158106.18    71.526039     71.52604    35.685341          120    77430.089    89469.854    51263.171   -4027.6372   -10004.767   -3057.6071    71.526039    61.943367    35.685341    72721.038   -310834.06 
    1000    621.75324    158096.68    71.524606    71.524607    35.684627          120    49004.759    50077.498    -22641.23    1391.6735    6704.7981    304.39128    71.524606    61.942127    35.684627    25480.342   -311027.71 
Loop time of 289.732 on 1 procs for 1000 steps with 15232 atoms

Performance: 0.030 ns/day, 804.810 hours/ns, 3.451 timesteps/s
100.0% CPU use with 1 MPI tasks x no OpenMP threads

MPI task timing breakdown:
Section |  min time  |  avg time  |  max time  |%varavg| %total
---------------------------------------------------------------
Pair    | 261.56     | 261.56     | 261.56     |   0.0 | 90.28
Bond    | 0.016217   | 0.016217   | 0.016217   |   0.0 |  0.01
Kspace  | 10.755     | 10.755     | 10.755     |   0.0 |  3.71
Neigh   | 10.936     | 10.936     | 10.936     |   0.0 |  3.77
Comm    | 0.27343    | 0.27343    | 0.27343    |   0.0 |  0.09
Output  | 0.010585   | 0.010585   | 0.010585   |   0.0 |  0.00
Modify  | 6.1008     | 6.1008     | 6.1008     |   0.0 |  2.11
Other   |            | 0.08314    |            |       |  0.03

Nlocal:    15232 ave 15232 max 15232 min
Histogram: 1 0 0 0 0 0 0 0 0 0
Nghost:    47990 ave 47990 max 47990 min
Histogram: 1 0 0 0 0 0 0 0 0 0
Neighs:    1.09665e+07 ave 1.09665e+07 max 1.09665e+07 min
Histogram: 1 0 0 0 0 0 0 0 0 0

Total # of neighbors = 10966505
Ave neighs/atom = 719.965
Ave special neighs/atom = 0.0504202
Neighbor list builds = 37
Dangerous builds = 0
PPPM initialization ...
  using 12-bit tables for long-range coulomb (../kspace.cpp:321)
  G vector (1/distance) = 0.203116
  grid = 36 50 24
  stencil order = 5
  estimated absolute RMS force accuracy = 0.000956584
  estimated relative force accuracy = 6.64311e-05
  using double precision FFTs
  3d grid and FFT values/proc = 65395 43200
Setting up Verlet run ...
  Unit style    : metal
  Current step  : 0
  Time step     : 0.0001
Per MPI rank memory allocation (min/avg/max) = 164.1 | 164.1 | 164.1 Mbytes
Step Temp Volume Cella Cellb Cellc CellGamma Pxx Pyy Pzz Pxy Pxz Pyz Lx Ly Lz Press PotEng 
       0    621.75324    158096.68    71.524606    71.524607    35.684627          120    49006.415    50079.164   -22639.323    1391.6608    6704.8071    304.38307    71.524606    61.942127    35.684627    25482.086   -311027.69 
     100     532.3442    158019.14    71.512911    71.512911    35.678792          120    92454.981    102824.95    96508.241   -767.92686    4961.0932    163.76276    71.512911    61.931998    35.678792    97262.723   -310878.17 
Loop time of 28.2019 on 1 procs for 100 steps with 15232 atoms

Performance: 0.031 ns/day, 783.385 hours/ns, 3.546 timesteps/s
100.0% CPU use with 1 MPI tasks x no OpenMP threads

MPI task timing breakdown:
Section |  min time  |  avg time  |  max time  |%varavg| %total
---------------------------------------------------------------
Pair    | 25.299     | 25.299     | 25.299     |   0.0 | 89.71
Bond    | 0.0016112  | 0.0016112  | 0.0016112  |   0.0 |  0.01
Kspace  | 1.0793     | 1.0793     | 1.0793     |   0.0 |  3.83
Neigh   | 1.1771     | 1.1771     | 1.1771     |   0.0 |  4.17
Comm    | 0.027675   | 0.027675   | 0.027675   |   0.0 |  0.10
Output  | 0.00010085 | 0.00010085 | 0.00010085 |   0.0 |  0.00
Modify  | 0.60848    | 0.60848    | 0.60848    |   0.0 |  2.16
Other   |            | 0.00837    |            |       |  0.03

Nlocal:    15232 ave 15232 max 15232 min
Histogram: 1 0 0 0 0 0 0 0 0 0
Nghost:    48076 ave 48076 max 48076 min
Histogram: 1 0 0 0 0 0 0 0 0 0
Neighs:    1.09675e+07 ave 1.09675e+07 max 1.09675e+07 min
Histogram: 1 0 0 0 0 0 0 0 0 0

Total # of neighbors = 10967466
Ave neighs/atom = 720.028
Ave special neighs/atom = 0.0504202
Neighbor list builds = 4
Dangerous builds = 0
 
All done!
Total wall time: 0:07:49
