ITEM: TIMESTEP
0
ITEM: NUMBER OF ATOMS
116
ITEM: BOX BOUNDS xy xz yz pp pp pp
-4.6040000000000001e+00 9.2080000000000002e+00 -4.6040000000000001e+00
0.0000000000000000e+00 7.9743620000000002e+00 0.0000000000000000e+00
0.0000000000000000e+00 1.8376000000000001e+01 0.0000000000000000e+00
ITEM: ATOMS id x y z 
1 4.604 0 2.297 
2 4.604 0 6.891 
3 -2.302 3.98718 2.297 
4 -2.302 3.98718 6.891 
5 2.302 3.98718 2.297 
6 2.302 3.98718 6.891 
7 -1.52471e-16 5.31624 2.297 
8 4.604 2.65812 6.891 
9 4.604 2.65812 2.297 
10 -1.52471e-16 5.31624 6.891 
11 3.03865 0.921267 0 
12 1.56535 7.0531 0 
13 6.89083 2.17092 0 
14 -2.28683 5.80344 0 
15 3.88251 4.88218 0 
16 0.721487 3.09219 0 
17 -0.721487 3.09219 4.594 
18 5.32549 4.88218 4.594 
19 -1.56535 7.0531 4.594 
20 6.16934 0.921267 4.594 
21 2.28683 5.80344 4.594 
22 2.31717 2.17092 4.594 
23 1.75742 1.87357 0 
24 2.84657 6.10079 0 
25 6.70672 0.585188 0 
26 -2.10272 7.38917 0 
27 5.34785 5.5156 0 
28 -0.743851 2.45876 0 
29 0.74385 2.45876 4.594 
30 3.86015 5.5156 4.594 
31 -2.84658 6.10079 4.594 
32 7.45058 1.87357 4.594 
33 2.10272 7.38917 4.594 
34 2.50128 0.585188 4.594 
35 3.92629 1.15697 1.3432 
36 0.677713 6.81739 7.8448 
37 6.24289 2.82178 1.3432 
38 -1.63889 5.15259 7.8448 
39 3.64283 3.99561 1.3432 
40 0.961175 3.97875 7.8448 
41 0.677713 6.81739 1.3432 
42 3.92629 1.15697 7.8448 
43 -1.63889 5.15259 1.3432 
44 6.24289 2.82178 7.8448 
45 0.961175 3.97875 1.3432 
46 3.64283 3.99561 7.8448 
47 -0.961175 3.97875 3.2508 
48 5.56518 3.99561 5.9372 
49 -0.677713 6.81739 3.2508 
50 5.28171 1.15697 5.9372 
51 1.63889 5.15259 3.2508 
52 2.96511 2.82178 5.9372 
53 5.56518 3.99561 3.2508 
54 -0.961175 3.97875 5.9372 
55 5.28171 1.15697 3.2508 
56 -0.677713 6.81739 5.9372 
57 2.96511 2.82178 3.2508 
58 1.63889 5.15259 5.9372 
59 4.604 0 11.485 
60 4.604 0 16.079 
61 -2.302 3.98718 11.485 
62 -2.302 3.98718 16.079 
63 2.302 3.98718 11.485 
64 2.302 3.98718 16.079 
65 -1.52471e-16 5.31624 11.485 
66 4.604 2.65812 16.079 
67 4.604 2.65812 11.485 
68 -1.52471e-16 5.31624 16.079 
69 3.03865 0.921267 9.188 
70 1.56535 7.0531 9.188 
71 6.89083 2.17092 9.188 
72 -2.28683 5.80344 9.188 
73 3.88251 4.88218 9.188 
74 0.721487 3.09219 9.188 
75 -0.721487 3.09219 13.782 
76 5.32549 4.88218 13.782 
77 -1.56535 7.0531 13.782 
78 6.16934 0.921267 13.782 
79 2.28683 5.80344 13.782 
80 2.31717 2.17092 13.782 
81 1.75742 1.87357 9.188 
82 2.84657 6.10079 9.188 
83 6.70672 0.585188 9.188 
84 -2.10272 7.38917 9.188 
85 5.34785 5.5156 9.188 
86 -0.743851 2.45876 9.188 
87 0.74385 2.45876 13.782 
88 3.86015 5.5156 13.782 
89 -2.84658 6.10079 13.782 
90 7.45058 1.87357 13.782 
91 2.10272 7.38917 13.782 
92 2.50128 0.585188 13.782 
93 3.92629 1.15697 10.5312 
94 0.677713 6.81739 17.0328 
95 6.24289 2.82178 10.5312 
96 -1.63889 5.15259 17.0328 
97 3.64283 3.99561 10.5312 
98 0.961175 3.97875 17.0328 
99 0.677713 6.81739 10.5312 
100 3.92629 1.15697 17.0328 
101 -1.63889 5.15259 10.5312 
102 6.24289 2.82178 17.0328 
103 0.961175 3.97875 10.5312 
104 3.64283 3.99561 17.0328 
105 -0.961175 3.97875 12.4388 
106 5.56518 3.99561 15.1252 
107 -0.677713 6.81739 12.4388 
108 5.28171 1.15697 15.1252 
109 1.63889 5.15259 12.4388 
110 2.96511 2.82178 15.1252 
111 5.56518 3.99561 12.4388 
112 -0.961175 3.97875 15.1252 
113 5.28171 1.15697 12.4388 
114 -0.677713 6.81739 15.1252 
115 2.96511 2.82178 12.4388 
116 1.63889 5.15259 15.1252 
ITEM: TIMESTEP
1
ITEM: NUMBER OF ATOMS
116
ITEM: BOX BOUNDS xy xz yz pp pp pp
-4.6040000000000001e+00 9.2080000000000002e+00 -4.6040000000000001e+00
0.0000000000000000e+00 7.9743620000000002e+00 0.0000000000000000e+00
0.0000000000000000e+00 1.8376000000000001e+01 0.0000000000000000e+00
ITEM: ATOMS id x y z 
1 4.604 -3.61303e-07 2.29726 
2 4.604 -3.67284e-07 6.89074 
3 -2.302 3.98718 2.29726 
4 -2.302 3.98718 6.89074 
5 2.302 3.98718 2.29726 
6 2.302 3.98718 6.89074 
7 -5.70696e-06 5.31625 2.29741 
8 4.60401 2.65812 6.89059 
9 4.60401 2.65812 2.29741 
10 -5.7095e-06 5.31625 6.89059 
11 3.13665 0.951505 -9.60429e-08 
12 1.46735 7.02286 -9.52958e-08 
13 6.81564 2.24067 -9.74687e-08 
14 -2.21164 5.7337 -9.5815e-08 
15 3.85971 4.78219 -9.69212e-08 
16 0.744288 3.19217 -9.67736e-08 
17 -0.7443 3.19219 4.594 
18 5.3483 4.78218 4.594 
19 -1.46734 7.02285 4.594 
20 6.07134 0.951515 4.594 
21 2.21163 5.7337 4.594 
22 2.39237 2.24067 4.594 
23 1.77887 1.89081 4.63784e-08 
24 2.82513 6.08355 4.54024e-08 
25 6.68107 0.595144 4.27703e-08 
26 -2.07707 7.37922 4.49333e-08 
27 5.35205 5.48841 4.4919e-08 
28 -0.748051 2.48596 4.44347e-08 
29 0.748056 2.48595 4.594 
30 3.85595 5.48841 4.594 
31 -2.82513 6.08355 4.594 
32 7.42913 1.89081 4.594 
33 2.07708 7.37922 4.594 
34 2.52692 0.595146 4.594 
35 3.95984 1.14496 1.34167 
36 0.644162 6.8294 7.84633 
37 6.23651 2.85684 1.34167 
38 -1.63251 5.11752 7.84633 
39 3.61564 3.97256 1.34167 
40 0.988358 4.0018 7.84633 
41 0.644162 6.8294 1.34167 
42 3.95984 1.14496 7.84633 
43 -1.63251 5.11752 1.34167 
44 6.23651 2.85684 7.84633 
45 0.988358 4.0018 1.34167 
46 3.61564 3.97256 7.84633 
47 -0.988352 4.0018 3.25197 
48 5.59235 3.97256 5.93604 
49 -0.644161 6.8294 3.25197 
50 5.24816 1.14496 5.93604 
51 1.63252 5.11752 3.25197 
52 2.97148 2.85684 5.93604 
53 5.59235 3.97256 3.25197 
54 -0.988352 4.0018 5.93604 
55 5.24816 1.14496 3.25197 
56 -0.644161 6.8294 5.93604 
57 2.97148 2.85684 3.25197 
58 1.63252 5.11752 5.93604 
59 4.604 -3.62395e-07 11.4853 
60 4.604 -3.63775e-07 16.0787 
61 -2.302 3.98718 11.4853 
62 -2.302 3.98718 16.0787 
63 2.302 3.98718 11.4853 
64 2.302 3.98718 16.0787 
65 -5.70094e-06 5.31625 11.4854 
66 4.60401 2.65812 16.0786 
67 4.60401 2.65812 11.4854 
68 -5.70468e-06 5.31625 16.0786 
69 3.13665 0.951505 9.188 
70 1.46735 7.02286 9.188 
71 6.81564 2.24067 9.188 
72 -2.21164 5.7337 9.188 
73 3.85971 4.78219 9.188 
74 0.744288 3.19217 9.188 
75 -0.7443 3.19218 13.782 
76 5.3483 4.78218 13.782 
77 -1.46734 7.02285 13.782 
78 6.07134 0.951515 13.782 
79 2.21163 5.7337 13.782 
80 2.39237 2.24067 13.782 
81 1.77887 1.89081 9.188 
82 2.82513 6.08355 9.188 
83 6.68107 0.595144 9.188 
84 -2.07707 7.37922 9.188 
85 5.35205 5.48841 9.188 
86 -0.748051 2.48596 9.188 
87 0.748056 2.48595 13.782 
88 3.85595 5.48841 13.782 
89 -2.82513 6.08355 13.782 
90 7.42913 1.89081 13.782 
91 2.07708 7.37922 13.782 
92 2.52692 0.595146 13.782 
93 3.95984 1.14496 10.5297 
94 0.644162 6.8294 17.0343 
95 6.23651 2.85684 10.5297 
96 -1.63251 5.11752 17.0343 
97 3.61564 3.97256 10.5297 
98 0.988358 4.0018 17.0343 
99 0.644162 6.8294 10.5297 
100 3.95984 1.14496 17.0343 
101 -1.63251 5.11752 10.5297 
102 6.23651 2.85684 17.0343 
103 0.988358 4.0018 10.5297 
104 3.61564 3.97256 17.0343 
105 -0.988352 4.0018 12.44 
106 5.59235 3.97256 15.124 
107 -0.644161 6.8294 12.44 
108 5.24816 1.14496 15.124 
109 1.63252 5.11752 12.44 
110 2.97148 2.85684 15.124 
111 5.59235 3.97256 12.44 
112 -0.988352 4.0018 15.124 
113 5.24816 1.14496 12.44 
114 -0.644161 6.8294 15.124 
115 2.97148 2.85684 12.44 
116 1.63252 5.11752 15.124 
ITEM: TIMESTEP
2
ITEM: NUMBER OF ATOMS
116
ITEM: BOX BOUNDS xy xz yz pp pp pp
-4.6040000000000001e+00 9.2080000000000002e+00 -4.6040000000000001e+00
0.0000000000000000e+00 7.9743620000000002e+00 0.0000000000000000e+00
0.0000000000000000e+00 1.8376000000000001e+01 0.0000000000000000e+00
ITEM: ATOMS id x y z 
1 4.604 1.15072e-06 2.29719 
2 4.604 1.12662e-06 6.89081 
3 -2.302 3.98718 2.29718 
4 -2.302 3.98718 6.89082 
5 2.302 3.98718 2.29718 
6 2.302 3.98718 6.89082 
7 -4.60429e-06 5.31624 2.2972 
8 4.604 2.65812 6.8908 
9 4.604 2.65812 2.2972 
10 -4.57042e-06 5.31624 6.8908 
11 3.17603 0.948948 1.74851e-07 
12 1.42797 7.02541 1.34233e-07 
13 6.79817 2.27605 1.58017e-07 
14 -2.19417 5.69831 1.66247e-07 
15 3.8378 4.74937 1.59198e-07 
16 0.766206 3.225 2.04806e-07 
17 -0.766139 3.2246 4.594 
18 5.37014 4.74976 4.594 
19 -1.42834 7.02556 4.594 
20 6.03234 0.948807 4.594 
21 2.19448 5.69856 4.594 
22 2.40952 2.2758 4.594 
23 1.8425 1.94407 -4.9663e-08 
24 2.7615 6.0303 -6.62976e-08 
25 6.60314 0.623622 -5.02913e-08 
26 -1.99914 7.35074 -4.95097e-08 
27 5.36636 5.40667 -4.70353e-08 
28 -0.762362 2.56769 -5.51853e-08 
29 0.762445 2.56795 4.594 
30 3.84156 5.40641 4.594 
31 -2.76131 6.03009 4.594 
32 7.36531 1.94427 4.594 
33 1.99887 7.35069 4.594 
34 2.60513 0.623675 4.594 
35 4.01897 1.15934 1.32777 
36 0.585029 6.81503 7.86023 
37 6.1945 2.90086 1.32777 
38 -1.5905 5.0735 7.86023 
39 3.59853 3.91417 1.32777 
40 1.00547 4.0602 7.86023 
41 0.585029 6.81503 1.32777 
42 4.01897 1.15934 7.86023 
43 -1.5905 5.07351 1.32777 
44 6.1945 2.90086 7.86023 
45 1.00547 4.0602 1.32777 
46 3.59853 3.91417 7.86023 
47 -1.00551 4.06039 3.26618 
48 5.60951 3.91398 5.92182 
49 -0.58485 6.81496 3.26618 
50 5.18885 1.1594 5.92182 
51 1.59036 5.07338 3.26618 
52 3.01364 2.90098 5.92182 
53 5.60951 3.91398 3.26618 
54 -1.00551 4.06038 5.92182 
55 5.18885 1.1594 3.26618 
56 -0.58485 6.81496 5.92182 
57 3.01364 2.90098 3.26618 
58 1.59036 5.07338 5.92182 
59 4.604 1.18635e-06 11.4852 
60 4.604 1.17873e-06 16.0788 
61 -2.302 3.98718 11.4852 
62 -2.302 3.98718 16.0788 
63 2.302 3.98718 11.4852 
64 2.302 3.98718 16.0788 
65 -4.53833e-06 5.31624 11.4852 
66 4.604 2.65812 16.0788 
67 4.604 2.65812 11.4852 
68 -4.55633e-06 5.31624 16.0788 
69 3.17603 0.948948 9.188 
70 1.42797 7.02541 9.188 
71 6.79817 2.27605 9.188 
72 -2.19418 5.69831 9.188 
73 3.8378 4.74937 9.188 
74 0.766205 3.225 9.188 
75 -0.766139 3.2246 13.782 
76 5.37014 4.74976 13.782 
77 -1.42834 7.02556 13.782 
78 6.03234 0.948807 13.782 
79 2.19448 5.69856 13.782 
80 2.40952 2.2758 13.782 
81 1.8425 1.94407 9.188 
82 2.7615 6.0303 9.188 
83 6.60314 0.623622 9.188 
84 -1.99914 7.35074 9.188 
85 5.36636 5.40667 9.188 
86 -0.762362 2.56769 9.188 
87 0.762445 2.56795 13.782 
88 3.84156 5.40641 13.782 
89 -2.76131 6.03009 13.782 
90 7.36531 1.94427 13.782 
91 1.99887 7.35069 13.782 
92 2.60513 0.623675 13.782 
93 4.01897 1.15934 10.5158 
94 0.585029 6.81503 17.0482 
95 6.1945 2.90086 10.5158 
96 -1.5905 5.07351 17.0482 
97 3.59853 3.91417 10.5158 
98 1.00547 4.0602 17.0482 
99 0.585029 6.81503 10.5158 
100 4.01897 1.15934 17.0482 
101 -1.5905 5.07351 10.5158 
102 6.1945 2.90086 17.0482 
103 1.00547 4.0602 10.5158 
104 3.59853 3.91417 17.0482 
105 -1.00551 4.06038 12.4542 
106 5.60951 3.91398 15.1098 
107 -0.58485 6.81496 12.4542 
108 5.18885 1.1594 15.1098 
109 1.59036 5.07338 12.4542 
110 3.01364 2.90098 15.1098 
111 5.60951 3.91398 12.4542 
112 -1.00551 4.06039 15.1098 
113 5.18885 1.1594 12.4542 
114 -0.58485 6.81496 15.1098 
115 3.01364 2.90098 12.4542 
116 1.59036 5.07338 15.1098 
ITEM: TIMESTEP
3
ITEM: NUMBER OF ATOMS
116
ITEM: BOX BOUNDS xy xz yz pp pp pp
-4.6040000000000001e+00 9.2080000000000002e+00 -4.6040000000000001e+00
0.0000000000000000e+00 7.9743620000000002e+00 0.0000000000000000e+00
0.0000000000000000e+00 1.8376000000000001e+01 0.0000000000000000e+00
ITEM: ATOMS id x y z 
1 8.40965e-08 7.97436 2.29727 
2 8.51248e-08 7.97436 6.89073 
3 -2.302 3.98718 2.29727 
4 -2.302 3.98718 6.89073 
5 2.302 3.98718 2.29727 
6 2.302 3.98718 6.89073 
7 -7.39142e-06 5.31624 2.29737 
8 4.60401 2.65812 6.89063 
9 4.60401 2.65812 2.29737 
10 -7.35486e-06 5.31624 6.89063 
11 3.19094 0.949428 18.376 
12 1.41306 7.02493 18.376 
13 6.7903 2.28872 18.376 
14 -2.1863 5.68564 18.376 
15 3.83076 4.73621 18.376 
16 0.773238 3.23815 18.376 
17 -0.773233 3.23808 4.594 
18 5.37723 4.73629 4.594 
19 -1.41313 7.02496 4.594 
20 6.01713 0.949402 4.594 
21 2.18636 5.68569 4.594 
22 2.41764 2.28868 4.594 
23 1.85518 1.95232 2.47018e-08 
24 2.74882 6.02204 1.71961e-09 
25 6.58965 0.630473 1.12054e-08 
26 -1.98565 7.34389 2.60959e-08 
27 5.36717 5.39157 2.67497e-08 
28 -0.76317 2.5828 2.57973e-08 
29 0.763211 2.58292 4.594 
30 3.84079 5.39145 4.594 
31 -2.74874 6.02194 4.594 
32 7.35274 1.95242 4.594 
33 1.98552 7.34387 4.594 
34 2.61848 0.630496 4.594 
35 4.01635 1.1634 1.32172 
36 0.587652 6.81097 7.86628 
37 6.19229 2.89656 1.32172 
38 -1.58829 5.0778 7.86628 
39 3.60336 3.9144 1.32172 
40 1.00064 4.05996 7.86628 
41 0.587652 6.81097 1.32172 
42 4.01635 1.1634 7.86628 
43 -1.58829 5.0778 1.32172 
44 6.19229 2.89656 7.86628 
45 1.00064 4.05996 1.32172 
46 3.60336 3.9144 7.86628 
47 -1.00067 4.06004 3.27217 
48 5.60467 3.91432 5.91583 
49 -0.587564 6.81095 3.27217 
50 5.19156 1.16341 5.91583 
51 1.58824 5.07773 3.27217 
52 3.01576 2.89663 5.91584 
53 5.60467 3.91432 3.27217 
54 -1.00067 4.06004 5.91583 
55 5.19156 1.16341 3.27217 
56 -0.587565 6.81095 5.91583 
57 3.01576 2.89663 3.27216 
58 1.58824 5.07773 5.91584 
59 6.81711e-08 7.97436 11.4853 
60 8.84124e-08 7.97436 16.0787 
61 -2.302 3.98718 11.4853 
62 -2.302 3.98718 16.0787 
63 2.302 3.98718 11.4853 
64 2.302 3.98718 16.0787 
65 -7.32877e-06 5.31624 11.4854 
66 4.60401 2.65812 16.0786 
67 4.60401 2.65812 11.4854 
68 -7.3514e-06 5.31624 16.0786 
69 3.19094 0.949428 9.188 
70 1.41306 7.02493 9.188 
71 6.7903 2.28872 9.188 
72 -2.1863 5.68564 9.188 
73 3.83076 4.73621 9.188 
74 0.773238 3.23815 9.188 
75 -0.773233 3.23808 13.782 
76 5.37723 4.73629 13.782 
77 -1.41313 7.02496 13.782 
78 6.01713 0.949402 13.782 
79 2.18636 5.68569 13.782 
80 2.41764 2.28868 13.782 
81 1.85518 1.95232 9.188 
82 2.74882 6.02204 9.188 
83 6.58965 0.630473 9.188 
84 -1.98565 7.34389 9.188 
85 5.36717 5.39157 9.188 
86 -0.76317 2.58279 9.188 
87 0.763211 2.58292 13.782 
88 3.84079 5.39145 13.782 
89 -2.74874 6.02194 13.782 
90 7.35274 1.95242 13.782 
91 1.98552 7.34387 13.782 
92 2.61848 0.630496 13.782 
93 4.01635 1.1634 10.5097 
94 0.587652 6.81097 17.0543 
95 6.19229 2.89656 10.5097 
96 -1.58829 5.0778 17.0543 
97 3.60336 3.9144 10.5097 
98 1.00064 4.05996 17.0543 
99 0.587652 6.81097 10.5097 
100 4.01635 1.1634 17.0543 
101 -1.58829 5.0778 10.5097 
102 6.19229 2.89656 17.0543 
103 1.00064 4.05996 10.5097 
104 3.60336 3.9144 17.0543 
105 -1.00067 4.06004 12.4602 
106 5.60467 3.91432 15.1038 
107 -0.587565 6.81095 12.4602 
108 5.19156 1.16341 15.1038 
109 1.58824 5.07773 12.4602 
110 3.01576 2.89663 15.1038 
111 5.60467 3.91432 12.4602 
112 -1.00067 4.06004 15.1038 
113 5.19156 1.16341 12.4602 
114 -0.587564 6.81095 15.1038 
115 3.01576 2.89663 12.4602 
116 1.58824 5.07773 15.1038 
ITEM: TIMESTEP
4
ITEM: NUMBER OF ATOMS
116
ITEM: BOX BOUNDS xy xz yz pp pp pp
-4.6040000000000001e+00 9.2080000000000002e+00 -4.6040000000000001e+00
0.0000000000000000e+00 7.9743620000000002e+00 0.0000000000000000e+00
0.0000000000000000e+00 1.8376000000000001e+01 0.0000000000000000e+00
ITEM: ATOMS id x y z 
1 1.13446e-07 7.97436 2.29724 
2 1.39898e-07 7.97436 6.89076 
3 -2.302 3.98718 2.29724 
4 -2.302 3.98718 6.89076 
5 2.302 3.98718 2.29724 
6 2.302 3.98718 6.89076 
7 -5.82732e-06 5.31624 2.29729 
8 4.60401 2.65812 6.89071 
9 4.604 2.65812 2.29729 
10 -5.75994e-06 5.31624 6.89071 
11 3.19698 0.950633 18.376 
12 1.40702 7.02373 18.376 
13 6.78624 2.29335 18.376 
14 -2.18224 5.68101 18.376 
15 3.82878 4.73038 18.376 
16 0.775219 3.24399 18.376 
17 -0.775217 3.24392 4.594 
18 5.37922 4.73044 4.594 
19 -1.40707 7.02376 4.594 
20 6.01107 0.950604 4.594 
21 2.18229 5.68105 4.594 
22 2.42171 2.29332 4.594 
23 1.86251 1.95732 4.11703e-08 
24 2.74149 6.01704 1.26706e-08 
25 6.58166 0.634316 1.74017e-08 
26 -1.97766 7.34005 3.07023e-08 
27 5.36784 5.38272 3.06886e-08 
28 -0.763838 2.59164 3.66012e-08 
29 0.763871 2.59176 4.594 
30 3.84013 5.3826 4.594 
31 -2.74141 6.01695 4.594 
32 7.34541 1.95741 4.594 
33 1.97753 7.34002 4.594 
34 2.62647 0.634348 4.594 
35 4.01249 1.16466 1.3288 
36 0.591508 6.8097 7.8592 
37 6.19312 2.89258 1.3288 
38 -1.58912 5.08178 7.8592 
39 3.60639 3.91711 1.3288 
40 0.997616 4.05725 7.8592 
41 0.591508 6.8097 1.3288 
42 4.01249 1.16466 7.8592 
43 -1.58912 5.08178 1.3288 
44 6.19312 2.89258 7.8592 
45 0.997615 4.05725 1.3288 
46 3.60639 3.91711 7.8592 
47 -0.997643 4.05736 3.26518 
48 5.60164 3.91701 5.92282 
49 -0.591406 6.80967 3.26518 
50 5.19541 1.16469 5.92282 
51 1.58905 5.0817 3.26518 
52 3.01495 2.89266 5.92282 
53 5.60164 3.91701 3.26518 
54 -0.997643 4.05736 5.92282 
55 5.19541 1.16469 3.26518 
56 -0.591406 6.80967 5.92282 
57 3.01495 2.89266 3.26518 
58 1.58905 5.0817 5.92282 
59 9.96406e-08 7.97436 11.4852 
60 1.21065e-07 7.97436 16.0788 
61 -2.302 3.98718 11.4852 
62 -2.302 3.98718 16.0788 
63 2.302 3.98718 11.4852 
64 2.302 3.98718 16.0788 
65 -5.71652e-06 5.31624 11.4853 
66 4.604 2.65812 16.0787 
67 4.604 2.65812 11.4853 
68 -5.784e-06 5.31624 16.0787 
69 3.19698 0.950633 9.188 
70 1.40702 7.02373 9.188 
71 6.78624 2.29335 9.188 
72 -2.18224 5.68101 9.188 
73 3.82878 4.73038 9.188 
74 0.775219 3.24399 9.188 
75 -0.775217 3.24392 13.782 
76 5.37922 4.73044 13.782 
77 -1.40707 7.02376 13.782 
78 6.01107 0.950604 13.782 
79 2.18229 5.68105 13.782 
80 2.42171 2.29332 13.782 
81 1.86251 1.95732 9.188 
82 2.74149 6.01704 9.188 
83 6.58166 0.634316 9.188 
84 -1.97766 7.34005 9.188 
85 5.36784 5.38272 9.188 
86 -0.763838 2.59164 9.188 
87 0.763871 2.59176 13.782 
88 3.84013 5.3826 13.782 
89 -2.74141 6.01695 13.782 
90 7.34541 1.95741 13.782 
91 1.97753 7.34002 13.782 
92 2.62647 0.634348 13.782 
93 4.01249 1.16466 10.5168 
94 0.591508 6.8097 17.0472 
95 6.19312 2.89258 10.5168 
96 -1.58912 5.08178 17.0472 
97 3.60639 3.91711 10.5168 
98 0.997616 4.05725 17.0472 
99 0.591508 6.8097 10.5168 
100 4.01249 1.16466 17.0472 
101 -1.58912 5.08178 10.5168 
102 6.19312 2.89258 17.0472 
103 0.997615 4.05725 10.5168 
104 3.60639 3.91711 17.0472 
105 -0.997643 4.05736 12.4532 
106 5.60164 3.91701 15.1108 
107 -0.591406 6.80967 12.4532 
108 5.19541 1.16469 15.1108 
109 1.58905 5.0817 12.4532 
110 3.01495 2.89266 15.1108 
111 5.60164 3.91701 12.4532 
112 -0.997643 4.05736 15.1108 
113 5.19541 1.16469 12.4532 
114 -0.591406 6.80967 15.1108 
115 3.01495 2.89266 12.4532 
116 1.58905 5.0817 15.1108 
ITEM: TIMESTEP
5
ITEM: NUMBER OF ATOMS
116
ITEM: BOX BOUNDS xy xz yz pp pp pp
-4.6040000000000001e+00 9.2080000000000002e+00 -4.6040000000000001e+00
0.0000000000000000e+00 7.9743620000000002e+00 0.0000000000000000e+00
0.0000000000000000e+00 1.8376000000000001e+01 0.0000000000000000e+00
ITEM: ATOMS id x y z 
1 1.98294e-07 7.97436 2.29725 
2 1.87968e-07 7.97436 6.89076 
3 -2.302 3.98718 2.29725 
4 -2.302 3.98718 6.89075 
5 2.302 3.98718 2.29725 
6 2.302 3.98718 6.89075 
7 -6.4702e-06 5.31624 2.2973 
8 4.60401 2.65812 6.8907 
9 4.60401 2.65812 2.2973 
10 -6.43608e-06 5.31624 6.8907 
11 3.19605 0.951141 18.376 
12 1.40795 7.02322 18.376 
13 6.78626 2.29229 18.376 
14 -2.18226 5.68207 18.376 
15 3.82969 4.73093 18.376 
16 0.774311 3.24343 18.376 
17 -0.774306 3.24337 4.594 
18 5.37831 4.731 4.594 
19 -1.40801 7.02325 4.594 
20 6.01201 0.951118 4.594 
21 2.18231 5.68211 4.594 
22 2.42169 2.29225 4.594 
23 1.86859 1.96396 8.18308e-08 
24 2.73541 6.0104 5.01484e-08 
25 6.57287 0.636263 4.8955e-08 
26 -1.96887 7.3381 8.27516e-08 
27 5.37055 5.37414 2.42997e-07 
28 -0.766549 2.60023 6.88412e-08 
29 0.766573 2.60033 4.594 
30 3.83743 5.37404 4.594 
31 -2.73534 6.01033 4.594 
32 7.33934 1.96404 4.594 
33 1.96876 7.33807 4.594 
34 2.63524 0.636291 4.594 
35 4.00944 1.16357 1.32912 
36 0.594559 6.81079 7.85888 
37 6.1956 2.89049 1.32913 
38 -1.5916 5.08387 7.85888 
39 3.60696 3.9203 1.32912 
40 0.99704 4.05406 7.85888 
41 0.594559 6.81079 1.32912 
42 4.00944 1.16357 7.85888 
43 -1.5916 5.08387 1.32912 
44 6.1956 2.89049 7.85888 
45 0.99704 4.05406 1.32913 
46 3.60696 3.9203 7.85888 
47 -0.997072 4.05418 3.26484 
48 5.60107 3.92018 5.92316 
49 -0.594442 6.81076 3.26484 
50 5.19844 1.1636 5.92316 
51 1.59152 5.08378 3.26484 
52 3.01248 2.89058 5.92316 
53 5.60107 3.92018 3.26484 
54 -0.997072 4.05418 5.92316 
55 5.19844 1.1636 3.26484 
56 -0.594442 6.81076 5.92316 
57 3.01248 2.89058 3.26484 
58 1.59152 5.08378 5.92316 
59 1.52556e-07 7.97436 11.4852 
60 1.83766e-07 7.97436 16.0788 
61 -2.302 3.98718 11.4852 
62 -2.302 3.98718 16.0788 
63 2.302 3.98718 11.4852 
64 2.302 3.98718 16.0788 
65 -6.39528e-06 5.31624 11.4853 
66 4.60401 2.65812 16.0787 
67 4.60401 2.65812 11.4853 
68 -6.49352e-06 5.31624 16.0787 
69 3.19605 0.951141 9.188 
70 1.40795 7.02322 9.188 
71 6.78626 2.29229 9.188 
72 -2.18226 5.68207 9.188 
73 3.82969 4.73093 9.188 
74 0.774311 3.24343 9.188 
75 -0.774306 3.24337 13.782 
76 5.37831 4.731 13.782 
77 -1.40801 7.02325 13.782 
78 6.01201 0.951118 13.782 
79 2.18231 5.68211 13.782 
80 2.42169 2.29225 13.782 
81 1.86859 1.96396 9.188 
82 2.73541 6.0104 9.188 
83 6.57287 0.636263 9.188 
84 -1.96887 7.3381 9.188 
85 5.37055 5.37414 9.188 
86 -0.766549 2.60023 9.188 
87 0.766573 2.60033 13.782 
88 3.83743 5.37404 13.782 
89 -2.73534 6.01033 13.782 
90 7.33934 1.96404 13.782 
91 1.96876 7.33807 13.782 
92 2.63524 0.636291 13.782 
93 4.00944 1.16357 10.5171 
94 0.594559 6.81079 17.0469 
95 6.1956 2.89049 10.5171 
96 -1.5916 5.08387 17.0469 
97 3.60696 3.9203 10.5171 
98 0.99704 4.05406 17.0469 
99 0.594559 6.81079 10.5171 
100 4.00944 1.16357 17.0469 
101 -1.5916 5.08387 10.5171 
102 6.1956 2.89049 17.0469 
103 0.99704 4.05406 10.5171 
104 3.60696 3.9203 17.0469 
105 -0.997072 4.05418 12.4528 
106 5.60107 3.92018 15.1112 
107 -0.594442 6.81076 12.4528 
108 5.19844 1.1636 15.1112 
109 1.59152 5.08378 12.4528 
110 3.01248 2.89058 15.1112 
111 5.60107 3.92018 12.4528 
112 -0.997072 4.05418 15.1112 
113 5.19844 1.1636 12.4528 
114 -0.594442 6.81076 15.1112 
115 3.01248 2.89058 12.4528 
116 1.59152 5.08378 15.1112 
ITEM: TIMESTEP
6
ITEM: NUMBER OF ATOMS
116
ITEM: BOX BOUNDS xy xz yz pp pp pp
-4.6040000000000001e+00 9.2080000000000002e+00 -4.6040000000000001e+00
0.0000000000000000e+00 7.9743620000000002e+00 0.0000000000000000e+00
0.0000000000000000e+00 1.8376000000000001e+01 0.0000000000000000e+00
ITEM: ATOMS id x y z 
1 2.1855e-07 7.97436 2.29725 
2 2.46134e-07 7.97436 6.89075 
3 -2.302 3.98718 2.29726 
4 -2.302 3.98718 6.89074 
5 2.302 3.98718 2.29726 
6 2.302 3.98718 6.89074 
7 -6.37641e-06 5.31624 2.29732 
8 4.604 2.65813 6.89068 
9 4.604 2.65813 2.29732 
10 -6.29469e-06 5.31624 6.89068 
11 3.19556 0.951009 18.376 
12 1.40844 7.02335 18.376 
13 6.78662 2.29193 18.376 
14 -2.18262 5.68243 18.376 
15 3.82982 4.73142 18.376 
16 0.77418 3.24294 18.376 
17 -0.774169 3.24287 4.594 
18 5.37817 4.7315 4.594 
19 -1.40851 7.02338 4.594 
20 6.01251 0.950986 4.594 
21 2.18268 5.68248 4.594 
22 2.42132 2.29188 4.594 
23 1.86791 1.96442 3.71879e-08 
24 2.73609 6.00994 7.90469e-09 
25 6.57281 0.635445 8.12462e-10 
26 -1.96881 7.33892 2.93437e-08 
27 5.37129 5.37449 1.45134e-07 
28 -0.767286 2.59987 2.72722e-08 
29 0.767316 2.59997 4.594 
30 3.83668 5.37439 4.594 
31 -2.73602 6.00986 4.594 
32 7.34002 1.9645 4.594 
33 1.9687 7.33889 4.594 
34 2.6353 0.63547 4.594 
35 4.00991 1.16355 1.32884 
36 0.594088 6.81081 7.85916 
37 6.19538 2.89091 1.32884 
38 -1.59137 5.08346 7.85916 
39 3.60671 3.9199 1.32884 
40 0.99729 4.05446 7.85916 
41 0.594088 6.81081 1.32884 
42 4.00991 1.16355 7.85916 
43 -1.59137 5.08346 1.32884 
44 6.19538 2.89091 7.85916 
45 0.99729 4.05446 1.32884 
46 3.60671 3.9199 7.85916 
47 -0.997329 4.05458 3.2651 
48 5.60133 3.91979 5.9229 
49 -0.59397 6.81078 3.2651 
50 5.19797 1.16358 5.9229 
51 1.5913 5.08336 3.2651 
52 3.0127 2.891 5.9229 
53 5.60133 3.91979 3.2651 
54 -0.997329 4.05458 5.9229 
55 5.19797 1.16358 3.2651 
56 -0.59397 6.81078 5.9229 
57 3.0127 2.891 3.26511 
58 1.5913 5.08336 5.9229 
59 2.05446e-07 7.97436 11.4853 
60 2.08283e-07 7.97436 16.0787 
61 -2.302 3.98718 11.4853 
62 -2.302 3.98718 16.0787 
63 2.302 3.98718 11.4853 
64 2.302 3.98718 16.0787 
65 -6.32774e-06 5.31624 11.4853 
66 4.604 2.65813 16.0787 
67 4.604 2.65813 11.4853 
68 -6.44303e-06 5.31624 16.0787 
69 3.19556 0.951009 9.188 
70 1.40844 7.02335 9.188 
71 6.78662 2.29193 9.188 
72 -2.18262 5.68243 9.188 
73 3.82982 4.73142 9.188 
74 0.77418 3.24294 9.188 
75 -0.774169 3.24287 13.782 
76 5.37817 4.7315 13.782 
77 -1.40851 7.02338 13.782 
78 6.01251 0.950986 13.782 
79 2.18268 5.68248 13.782 
80 2.42132 2.29188 13.782 
81 1.86791 1.96442 9.188 
82 2.73609 6.00994 9.188 
83 6.57281 0.635445 9.188 
84 -1.96881 7.33892 9.188 
85 5.37129 5.37449 9.188 
86 -0.767286 2.59987 9.188 
87 0.767315 2.59997 13.782 
88 3.83669 5.37439 13.782 
89 -2.73602 6.00986 13.782 
90 7.34002 1.9645 13.782 
91 1.9687 7.33889 13.782 
92 2.6353 0.63547 13.782 
93 4.00991 1.16355 10.5168 
94 0.594088 6.81081 17.0472 
95 6.19538 2.89091 10.5168 
96 -1.59137 5.08346 17.0472 
97 3.60671 3.9199 10.5168 
98 0.99729 4.05446 17.0472 
99 0.594088 6.81081 10.5168 
100 4.00991 1.16355 17.0472 
101 -1.59137 5.08346 10.5168 
102 6.19538 2.89091 17.0472 
103 0.99729 4.05446 10.5168 
104 3.60671 3.9199 17.0472 
105 -0.997329 4.05458 12.4531 
106 5.60133 3.91979 15.1109 
107 -0.59397 6.81078 12.4531 
108 5.19797 1.16358 15.1109 
109 1.5913 5.08336 12.4531 
110 3.0127 2.891 15.1109 
111 5.60133 3.91979 12.4531 
112 -0.997329 4.05458 15.1109 
113 5.19797 1.16358 12.4531 
114 -0.59397 6.81078 15.1109 
115 3.0127 2.891 12.4531 
116 1.5913 5.08336 15.1109 
ITEM: TIMESTEP
7
ITEM: NUMBER OF ATOMS
116
ITEM: BOX BOUNDS xy xz yz pp pp pp
-4.6040000000000001e+00 9.2080000000000002e+00 -4.6040000000000001e+00
0.0000000000000000e+00 7.9743620000000002e+00 0.0000000000000000e+00
0.0000000000000000e+00 1.8376000000000001e+01 0.0000000000000000e+00
ITEM: ATOMS id x y z 
1 2.861e-07 7.97436 2.29725 
2 2.99529e-07 7.97436 6.89075 
3 -2.302 3.98718 2.29726 
4 -2.302 3.98718 6.89074 
5 2.302 3.98718 2.29726 
6 2.302 3.98718 6.89075 
7 -7.91073e-06 5.31624 2.2973 
8 4.60401 2.65813 6.8907 
9 4.60401 2.65813 2.2973 
10 -7.82897e-06 5.31624 6.8907 
11 3.19577 0.951351 18.376 
12 1.40823 7.02301 18.376 
13 6.78622 2.29194 18.376 
14 -2.18222 5.68242 18.376 
15 3.83001 4.73107 18.376 
16 0.773989 3.24329 18.376 
17 -0.773975 3.2432 4.594 
18 5.37797 4.73116 4.594 
19 -1.40832 7.02304 4.594 
20 6.01232 0.951322 4.594 
21 2.18229 5.68248 4.594 
22 2.42171 2.29188 4.594 
23 1.86713 1.96432 1.03984e-07 
24 2.73688 6.01004 1.10613e-07 
25 6.57329 0.634816 7.46973e-08 
26 -1.96929 7.33955 1.20338e-07 
27 5.37159 5.37522 1.77093e-07 
28 -0.767591 2.59914 1.19479e-07 
29 0.767625 2.59925 4.594 
30 3.83638 5.37511 4.594 
31 -2.7368 6.00995 4.594 
32 7.3408 1.96441 4.594 
33 1.96917 7.33952 4.594 
34 2.63483 0.634841 4.594 
35 4.01003 1.16365 1.32872 
36 0.593973 6.81071 7.85928 
37 6.19523 2.89096 1.32872 
38 -1.59123 5.0834 7.85928 
39 3.60674 3.91975 1.32872 
40 0.997263 4.05461 7.85928 
41 0.593973 6.81071 1.32872 
42 4.01003 1.16365 7.85928 
43 -1.59123 5.0834 1.32872 
44 6.19523 2.89096 7.85928 
45 0.997263 4.05461 1.32872 
46 3.60674 3.91975 7.85928 
47 -0.997305 4.05473 3.26523 
48 5.6013 3.91963 5.92277 
49 -0.593851 6.81069 3.26524 
50 5.19785 1.16367 5.92277 
51 1.59116 5.08331 3.26523 
52 3.01284 2.89106 5.92277 
53 5.6013 3.91963 3.26523 
54 -0.997305 4.05473 5.92277 
55 5.19785 1.16367 3.26523 
56 -0.593851 6.81069 5.92277 
57 3.01284 2.89106 3.26523 
58 1.59116 5.08331 5.92277 
59 2.74945e-07 7.97436 11.4852 
60 3.31013e-07 7.97436 16.0788 
61 -2.302 3.98718 11.4853 
62 -2.302 3.98718 16.0787 
63 2.302 3.98718 11.4853 
64 2.302 3.98718 16.0787 
65 -7.80703e-06 5.31624 11.4853 
66 4.60401 2.65813 16.0787 
67 4.60401 2.65813 11.4853 
68 -7.95857e-06 5.31624 16.0787 
69 3.19577 0.951351 9.188 
70 1.40823 7.02301 9.188 
71 6.78622 2.29194 9.188 
72 -2.18222 5.68242 9.188 
73 3.83001 4.73107 9.188 
74 0.773989 3.24329 9.188 
75 -0.773975 3.2432 13.782 
76 5.37798 4.73116 13.782 
77 -1.40832 7.02304 13.782 
78 6.01232 0.951322 13.782 
79 2.18229 5.68248 13.782 
80 2.42171 2.29188 13.782 
81 1.86713 1.96432 9.188 
82 2.73688 6.01004 9.188 
83 6.57329 0.634816 9.188 
84 -1.96929 7.33955 9.188 
85 5.37159 5.37522 9.188 
86 -0.767591 2.59914 9.188 
87 0.767625 2.59925 13.782 
88 3.83638 5.37511 13.782 
89 -2.7368 6.00995 13.782 
90 7.3408 1.96441 13.782 
91 1.96917 7.33952 13.782 
92 2.63483 0.63484 13.782 
93 4.01003 1.16365 10.5167 
94 0.593973 6.81071 17.0473 
95 6.19523 2.89096 10.5167 
96 -1.59123 5.08341 17.0473 
97 3.60674 3.91975 10.5167 
98 0.997263 4.05461 17.0473 
99 0.593973 6.81071 10.5167 
100 4.01003 1.16365 17.0473 
101 -1.59123 5.08341 10.5167 
102 6.19523 2.89096 17.0473 
103 0.997263 4.05461 10.5167 
104 3.60674 3.91975 17.0473 
105 -0.997305 4.05473 12.4532 
106 5.6013 3.91963 15.1108 
107 -0.593851 6.81069 12.4532 
108 5.19785 1.16367 15.1108 
109 1.59116 5.08331 12.4532 
110 3.01284 2.89106 15.1108 
111 5.6013 3.91963 12.4532 
112 -0.997305 4.05473 15.1108 
113 5.19785 1.16367 12.4532 
114 -0.593851 6.81069 15.1108 
115 3.01284 2.89106 12.4532 
116 1.59116 5.08331 15.1108 
ITEM: TIMESTEP
8
ITEM: NUMBER OF ATOMS
116
ITEM: BOX BOUNDS xy xz yz pp pp pp
-4.6040000000000001e+00 9.2080000000000002e+00 -4.6040000000000001e+00
0.0000000000000000e+00 7.9743620000000002e+00 0.0000000000000000e+00
0.0000000000000000e+00 1.8376000000000001e+01 0.0000000000000000e+00
ITEM: ATOMS id x y z 
1 4.36385e-07 7.97437 2.29726 
2 4.43613e-07 7.97437 6.89074 
3 -2.302 3.98718 2.29727 
4 -2.302 3.98718 6.89073 
5 2.302 3.98718 2.29727 
6 2.302 3.98718 6.89073 
7 -7.81305e-06 5.31624 2.29731 
8 4.604 2.65813 6.89069 
9 4.604 2.65813 2.29731 
10 -7.65847e-06 5.31624 6.89069 
11 3.19555 0.951667 18.376 
12 1.40845 7.0227 18.376 
13 6.78606 2.2916 18.376 
14 -2.18206 5.68277 18.376 
15 3.83039 4.7311 18.376 
16 0.773608 3.24326 18.376 
17 -0.773596 3.24319 4.594 
18 5.3776 4.73118 4.594 
19 -1.40852 7.02272 4.594 
20 6.01252 0.951643 4.594 
21 2.18211 5.68281 4.594 
22 2.42189 2.29155 4.594 
23 1.86689 1.96421 -5.71647e-09 
24 2.73711 6.01015 4.33515e-09 
25 6.5735 0.634666 -4.95797e-08 
26 -1.9695 7.3397 1.69384e-08 
27 5.37161 5.37549 5.77503e-08 
28 -0.767613 2.59888 -2.31332e-10 
29 0.767644 2.59898 4.594 
30 3.83636 5.37539 4.594 
31 -2.73704 6.01007 4.594 
32 7.34104 1.96429 4.594 
33 1.96939 7.33967 4.594 
34 2.63461 0.634689 4.594 
35 4.01014 1.16388 1.32873 
36 0.593861 6.81048 7.85927 
37 6.19497 2.89094 1.32874 
38 -1.59097 5.08343 7.85926 
39 3.60689 3.91954 1.32873 
40 0.997112 4.05482 7.85926 
41 0.593861 6.81048 1.32874 
42 4.01014 1.16388 7.85927 
43 -1.59097 5.08343 1.32874 
44 6.19497 2.89094 7.85926 
45 0.997112 4.05482 1.32874 