created by fftool

122 atoms
6 atom types
4 bonds
1 bond types
2 angles
1 angle types
0.000000 100.0003dsxlo xhi
0.000000 100.000000 ylo yhi
0.000000 100.000000 zlo zhi
   -4.60400000     0.00000000     0.00000000 xy xz yz
    0.00000000     9.20800000 xlo xhi
    0.00000000     7.97436200 ylo yhi
    0.00000000    18.37600000 zlo zhi

Masses

	1	9.012 	# Be  
	2	28.982	# Al 
	3	28.085	# Si 
	4	15.999	# O
	5	1.008	# Hw
	6	15.999	# Ow		
 
Atoms

      1       1    1   1.7560  4.604000e+00  0.000000e+00  2.297000e+00  # Be Be
      2       2    1   1.7560  4.604000e+00  0.000000e+00  6.891001e+00  # Be Be
      3       3    1   1.7560 -2.302000e+00  3.987181e+00  2.297000e+00  # Be Be
      4       4    1   1.7560 -2.302000e+00  3.987181e+00  6.891001e+00  # Be Be
      5       5    1   1.7560  2.302000e+00  3.987181e+00  2.297000e+00  # Be Be
      6       6    1   1.7560  2.302000e+00  3.987181e+00  6.891001e+00  # Be Be
      7       7    2   2.7202  0.000000e+00  5.316242e+00  2.297000e+00  # Al Al
      8       8    2   2.7202  4.604000e+00  2.658121e+00  6.891001e+00  # Al Al
      9       9    2   2.7202  4.604000e+00  2.658121e+00  2.297000e+00  # Al Al
     10      10    2   2.7202  0.000000e+00  5.316242e+00  6.891001e+00  # Al Al
     11      11    3   2.3969  3.038655e+00  9.212669e-01  0.000000e+00  # Si Si
     12      12    3   2.3969  1.565346e+00  7.053097e+00  0.000000e+00  # Si Si
     13      13    3   2.3969  6.890834e+00  2.170919e+00  0.000000e+00  # Si Si
     14      14    3   2.3969 -2.286833e+00  5.803444e+00  0.000000e+00  # Si Si
     15      15    3   2.3969  3.882513e+00  4.882177e+00  0.000000e+00  # Si Si
     16      16    3   2.3969  7.214871e-01  3.092185e+00  0.000000e+00  # Si Si
     17      17    3   2.3969 -7.214871e-01  3.092185e+00  4.594000e+00  # Si Si
     18      18    3   2.3969  5.325488e+00  4.882177e+00  4.594000e+00  # Si Si
     19      19    3   2.3969 -1.565346e+00  7.053097e+00  4.594000e+00  # Si Si
     20      20    3   2.3969  6.169345e+00  9.212669e-01  4.594000e+00  # Si Si
     21      21    3   2.3969  2.286833e+00  5.803444e+00  4.594000e+00  # Si Si
     22      22    3   2.3969  2.317168e+00  2.170919e+00  4.594000e+00  # Si Si
     23      23    4  -1.1373  1.757425e+00  1.873574e+00  0.000000e+00  # O1 O1
     24      24    4  -1.1373  2.846575e+00  6.100789e+00  0.000000e+00  # O1 O1
     25      25    4  -1.1373  6.706725e+00  5.851880e-01  0.000000e+00  # O1 O1
     26      26    4  -1.1373 -2.102725e+00  7.389175e+00  0.000000e+00  # O1 O1
     27      27    4  -1.1373  5.347852e+00  5.515600e+00  0.000000e+00  # O1 O1
     28      28    4  -1.1373 -7.438512e-01  2.458762e+00  0.000000e+00  # O1 O1
     29      29    4  -1.1373  7.438502e-01  2.458762e+00  4.594000e+00  # O1 O1
     30      30    4  -1.1373  3.860150e+00  5.515600e+00  4.594000e+00  # O1 O1
     31      31    4  -1.1373 -2.846575e+00  6.100789e+00  4.594000e+00  # O1 O1
     32      32    4  -1.1373  7.450576e+00  1.873574e+00  4.594000e+00  # O1 O1
     33      33    4  -1.1373  2.102724e+00  7.389175e+00  4.594000e+00  # O1 O1
     34      34    4  -1.1373  2.501276e+00  5.851880e-01  4.594000e+00  # O1 O1
     35      35    4  -1.5222  3.926287e+00  1.156973e+00  1.343200e+00  # O2 O2
     36      36    4  -1.5222  6.777131e-01  6.817388e+00  7.844801e+00  # O2 O2
     37      37    4  -1.5222  6.242889e+00  2.821778e+00  1.343200e+00  # O2 O2
     38      38    4  -1.5222 -1.638888e+00  5.152586e+00  7.844801e+00  # O2 O2
     39      39    4  -1.5222  3.642826e+00  3.995612e+00  1.343200e+00  # O2 O2
     40      40    4  -1.5222  9.611753e-01  3.978751e+00  7.844801e+00  # O2 O2
     41      41    4  -1.5222  6.777131e-01  6.817388e+00  1.343200e+00  # O2 O2
     42      42    4  -1.5222  3.926287e+00  1.156973e+00  7.844801e+00  # O2 O2
     43      43    4  -1.5222 -1.638888e+00  5.152586e+00  1.343200e+00  # O2 O2
     44      44    4  -1.5222  6.242889e+00  2.821778e+00  7.844801e+00  # O2 O2
     45      45    4  -1.5222  9.611753e-01  3.978751e+00  1.343200e+00  # O2 O2
     46      46    4  -1.5222  3.642826e+00  3.995612e+00  7.844801e+00  # O2 O2
     47      47    4  -1.5222 -9.611753e-01  3.978751e+00  3.250800e+00  # O2 O2
     48      48    4  -1.5222  5.565176e+00  3.995612e+00  5.937201e+00  # O2 O2
     49      49    4  -1.5222 -6.777131e-01  6.817388e+00  3.250800e+00  # O2 O2
     50      50    4  -1.5222  5.281713e+00  1.156973e+00  5.937201e+00  # O2 O2
     51      51    4  -1.5222  1.638888e+00  5.152586e+00  3.250800e+00  # O2 O2
     52      52    4  -1.5222  2.965112e+00  2.821778e+00  5.937201e+00  # O2 O2
     53      53    4  -1.5222  5.565176e+00  3.995612e+00  3.250800e+00  # O2 O2
     54      54    4  -1.5222 -9.611753e-01  3.978751e+00  5.937201e+00  # O2 O2
     55      55    4  -1.5222  5.281713e+00  1.156973e+00  3.250800e+00  # O2 O2
     56      56    4  -1.5222 -6.777131e-01  6.817388e+00  5.937201e+00  # O2 O2
     57      57    4  -1.5222  2.965112e+00  2.821778e+00  3.250800e+00  # O2 O2
     58      58    4  -1.5222  1.638888e+00  5.152586e+00  5.937201e+00  # O2 O2
     59      59    1   1.7560  4.604000e+00  0.000000e+00  1.148500e+01  # Be Be
     60      60    1   1.7560  4.604000e+00  0.000000e+00  1.607900e+01  # Be Be
     61      61    1   1.7560 -2.302000e+00  3.987181e+00  1.148500e+01  # Be Be
     62      62    1   1.7560 -2.302000e+00  3.987181e+00  1.607900e+01  # Be Be
     63      63    1   1.7560  2.302000e+00  3.987181e+00  1.148500e+01  # Be Be
     64      64    1   1.7560  2.302000e+00  3.987181e+00  1.607900e+01  # Be Be
     65      65    2   2.7202  0.000000e+00  5.316242e+00  1.148500e+01  # Al Al
     66      66    2   2.7202  4.604000e+00  2.658121e+00  1.607900e+01  # Al Al
     67      67    2   2.7202  4.604000e+00  2.658121e+00  1.148500e+01  # Al Al
     68      68    2   2.7202  0.000000e+00  5.316242e+00  1.607900e+01  # Al Al
     69      69    3   2.3969  3.038655e+00  9.212669e-01  9.188000e+00  # Si Si
     70      70    3   2.3969  1.565346e+00  7.053097e+00  9.188000e+00  # Si Si
     71      71    3   2.3969  6.890834e+00  2.170919e+00  9.188000e+00  # Si Si
     72      72    3   2.3969 -2.286833e+00  5.803444e+00  9.188000e+00  # Si Si
     73      73    3   2.3969  3.882513e+00  4.882177e+00  9.188000e+00  # Si Si
     74      74    3   2.3969  7.214871e-01  3.092185e+00  9.188000e+00  # Si Si
     75      75    3   2.3969 -7.214871e-01  3.092185e+00  1.378200e+01  # Si Si
     76      76    3   2.3969  5.325488e+00  4.882177e+00  1.378200e+01  # Si Si
     77      77    3   2.3969 -1.565346e+00  7.053097e+00  1.378200e+01  # Si Si
     78      78    3   2.3969  6.169345e+00  9.212669e-01  1.378200e+01  # Si Si
     79      79    3   2.3969  2.286833e+00  5.803444e+00  1.378200e+01  # Si Si
     80      80    3   2.3969  2.317168e+00  2.170919e+00  1.378200e+01  # Si Si
     81      81    4  -1.1373  1.757425e+00  1.873574e+00  9.188000e+00  # O1 O1
     82      82    4  -1.1373  2.846575e+00  6.100789e+00  9.188000e+00  # O1 O1
     83      83    4  -1.1373  6.706725e+00  5.851880e-01  9.188000e+00  # O1 O1
     84      84    4  -1.1373 -2.102725e+00  7.389175e+00  9.188000e+00  # O1 O1
     85      85    4  -1.1373  5.347852e+00  5.515600e+00  9.188000e+00  # O1 O1
     86      86    4  -1.1373 -7.438512e-01  2.458762e+00  9.188000e+00  # O1 O1
     87      87    4  -1.1373  7.438502e-01  2.458762e+00  1.378200e+01  # O1 O1
     88      88    4  -1.1373  3.860150e+00  5.515600e+00  1.378200e+01  # O1 O1
     89      89    4  -1.1373 -2.846575e+00  6.100789e+00  1.378200e+01  # O1 O1
     90      90    4  -1.1373  7.450576e+00  1.873574e+00  1.378200e+01  # O1 O1
     91      91    4  -1.1373  2.102724e+00  7.389175e+00  1.378200e+01  # O1 O1
     92      92    4  -1.1373  2.501276e+00  5.851880e-01  1.378200e+01  # O1 O1
     93      93    4  -1.5222  3.926287e+00  1.156973e+00  1.053120e+01  # O2 O2
     94      94    4  -1.5222  6.777131e-01  6.817388e+00  1.703280e+01  # O2 O2
     95      95    4  -1.5222  6.242889e+00  2.821778e+00  1.053120e+01  # O2 O2
     96      96    4  -1.5222 -1.638888e+00  5.152586e+00  1.703280e+01  # O2 O2
     97      97    4  -1.5222  3.642826e+00  3.995612e+00  1.053120e+01  # O2 O2
     98      98    4  -1.5222  9.611753e-01  3.978751e+00  1.703280e+01  # O2 O2
     99      99    4  -1.5222  6.777131e-01  6.817388e+00  1.053120e+01  # O2 O2
    100     100    4  -1.5222  3.926287e+00  1.156973e+00  1.703280e+01  # O2 O2
    101     101    4  -1.5222 -1.638888e+00  5.152586e+00  1.053120e+01  # O2 O2
    102     102    4  -1.5222  6.242889e+00  2.821778e+00  1.703280e+01  # O2 O2
    103     103    4  -1.5222  9.611753e-01  3.978751e+00  1.053120e+01  # O2 O2
    104     104    4  -1.5222  3.642826e+00  3.995612e+00  1.703280e+01  # O2 O2
    105     105    4  -1.5222 -9.611753e-01  3.978751e+00  1.243880e+01  # O2 O2
    106     106    4  -1.5222  5.565176e+00  3.995612e+00  1.512520e+01  # O2 O2
    107     107    4  -1.5222 -6.777131e-01  6.817388e+00  1.243880e+01  # O2 O2
    108     108    4  -1.5222  5.281713e+00  1.156973e+00  1.512520e+01  # O2 O2
    109     109    4  -1.5222  1.638888e+00  5.152586e+00  1.243880e+01  # O2 O2
    110     110    4  -1.5222  2.965112e+00  2.821778e+00  1.512520e+01  # O2 O2
    111     111    4  -1.5222  5.565176e+00  3.995612e+00  1.243880e+01  # O2 O2
    112     112    4  -1.5222 -9.611753e-01  3.978751e+00  1.512520e+01  # O2 O2
    113     113    4  -1.5222  5.281713e+00  1.156973e+00  1.243880e+01  # O2 O2
    114     114    4  -1.5222 -6.777131e-01  6.817388e+00  1.512520e+01  # O2 O2
    115     115    4  -1.5222  2.965112e+00  2.821778e+00  1.243880e+01  # O2 O2
    116     116    4  -1.5222  1.638888e+00  5.152586e+00  1.512520e+01  # O2 O2
    117	    117    6  -0.8476  4.71939900    7.08188400    2.29700000    # Ow Ow
    118     118    5   0.4236  5.54800100    7.57294300    2.56585300	 # Hw Hw	 
    119     119    5   0.4236  4.33033900    7.50704500    1.47976700    # Hw Hw
    120	    120    6  -0.8476  4.71939900    7.08188400   11.48500000    # Ow Ow
    121     121    5   0.4236  5.54800100    7.57294300   11.75385300	 # Hw Hw	 
    122     122    5   0.4236  4.33033900    7.50704500   10.66776700    # Hw Hw

Bonds

      1   1      117      118
      2   1      117      119
      3   1      120      121
      4   1      120      122

Angles

      1   1      118      117      119
      2   1      121      120      122
