LAMMPS (16 Mar 2018)
# Fin dminimud floating point parameter in input script or data file (../fix_nh.cpp:132)energy for Beryl

#----- Initialize Simulation -----
clear
units 		metal
boundary 	p p p
atom_style 	full
bond_style	none
variable	etol equal 1e-25
variable 	ftol equal 1e-25
variable 	maxiter equal 5000
variable 	maxeval equal 10000
variable	probeTemp equal 1800

#----- Create Atoms -----
read_data 	beryl_water_025.mod
  triclinic box = (0 0 0) to (9.208 7.97436 18.376) with tilt (-4.604 0 0)
  1 by 1 by 1 MPI processor grid
  reading atoms ...
  119 atoms
  scanning bonds ...
  2 = max bonds/atom
  scanning angles ...
  1 = max angles/atom
  reading bonds ...
  2 bonds
  reading angles ...
  1 angles
  2 = max # of 1-2 neighbors
  1 = max # of 1-3 neighbors
  1 = max # of 1-4 neighbors
  2 = max # of special neighbors
replicate 	8 8 2
  triclinic box = (0 0 0) to (73.664 63.7949 36.752) with tilt (-36.832 0 0)
  1 by 1 by 1 MPI processor grid
  15232 atoms
  256 bonds
  128 angles
  2 = max # of 1-2 neighbors
  1 = max # of 1-3 neighbors
  1 = max # of 1-4 neighbors
  2 = max # of special neighbors
  Time spent = 0.014395 secs

#----- Define Interatomic Potential -----
include 	potential_main.mod
kspace_style 	pppm 1.0e-4

# Neighbor Style
neighbor	0.3 bin
neigh_modify	delay 0 every 1 check yes

# Minimization style
min_style	cg

# Setup Output
thermo		10
thermo_style	custom	step temp vol cella cellb cellc cellgamma pxx pyy pzz pxy pxz pyz lx ly lz press pe #c_eatoms
thermo_modify	norm no
variable 	myVol equal vol
variable	myCella equal cella
variable	myCellb equal cellb
variable	myCellc equal cellc
variable	myCellgamma equal cellgamma
include 	potential_beryl.mod
# Potential Paramters
pair_style 	hybrid/overlay morse 5.5 buck 5.5 lj/cut/coul/long 5.5 15.0
pair_coeff    1    1 morse     		  0 	       0           0  # Be Be
pair_coeff    1    1 buck                 0            1           -201.0
pair_coeff    1    1 lj/cut/coul/long	  10120.	0.413
pair_coeff    1    2 morse     		  0 	       0           0  # Be Al
pair_coeff    1    2 buck                 0            1           0
pair_coeff    1    2 lj/cut/coul/long	  0	       0
pair_coeff    1    3 morse     		  0 	       0           0  # Al Si
pair_coeff    1    3 buck                 0            1           0
pair_coeff    1    3 lj/cut/coul/long	  0	       0
pair_coeff    1    4 morse 		  0.239919     2.527420    1.815405	#Be O
pair_coeff    1    4 buck                 0.000000     1.000000   -46.00000
pair_coeff    1    4 lj/cut/coul/long     529.000      0.528
pair_coeff    2    2 morse     		  0 	       0           0  # Al Al
pair_coeff    2    2 buck                 0            1           -492.
pair_coeff    2    2 lj/cut/coul/long	  60423		0.356
pair_coeff    2    3 morse     		  0 	       0           0  # Al si
pair_coeff    2    3 buck                 0            1           0
pair_coeff    2    3 lj/cut/coul/long	  0	       0
pair_coeff    2    4 morse 		  0.361581     1.900442    2.164818	#Al O
pair_coeff    2    4 buck                 0.000000     1.000000   -71.5
pair_coeff    2    4 lj/cut/coul/long     1420.0	0.482
pair_coeff    3    3 morse     		  0 	       0           0  # Si Si
pair_coeff    3    3 buck                 0            1           -282.
pair_coeff    3    3 lj/cut/coul/long	  19730		0.391
pair_coeff    3    4 morse 		  0.340554     2.006700    2.100000	#Si O
pair_coeff    3    4 buck                 0.000000     1.000000   -60.5
pair_coeff    3    4 lj/cut/coul/long     916.		0.504
pair_coeff    4    4 morse     		  0.042395     1.379316    3.618701  # O O
pair_coeff    4    4 buck                 0.000000     1.000000   -16.7
pair_coeff    4    4 lj/cut/coul/long	  3.16		1.05
include 	potential_water.mod
# Potential Paramters

pair_coeff    1    6 morse     		  0. 	       0.           0.  		# Ow Be
pair_coeff    1    6 buck                 0            1           -354.5
pair_coeff    1    6 lj/cut/coul/long	  39.637	1.1435
pair_coeff    2    6 morse     		  0 	       0           0  		# Ow Al
pair_coeff    2    6 buck                 0            1           -554.6
pair_coeff    2    6 lj/cut/coul/long	  96.854	1.0616
pair_coeff    3    6 morse     		  0 	       0           0  		# Ow Si
pair_coeff    3    6 buck                 0            1           -419.9
pair_coeff    3    6 lj/cut/coul/long	  55.345	1.1126
pair_coeff    4    6 morse     		  0 	       0           0  		# Ow O
pair_coeff    4    6 buck                 0            1           -102.9
pair_coeff    4    6 lj/cut/coul/long	  0.70042	1.8233
pair_coeff    5    6 morse     		  0 	       0           0  # Hw Hw
pair_coeff    5    6 buck                 0            1           0
pair_coeff    5    6 lj/cut/coul/long	  0.000	      0.0
pair_coeff    6    6 morse     		  0 	       0           0  		# Ow Ow
pair_coeff    6    6 buck                 0            1           -625.4
pair_coeff    6    6 lj/cut/coul/long	  0.15525	3.166
pair_coeff    1    5 morse     		  0 	       0           0  # Hw Hw
pair_coeff    1    5 buck                 0            1           0
pair_coeff    1    5 lj/cut/coul/long	  0.000	      0.0
pair_coeff    2    5 morse     		  0 	       0           0  # Hw Hw
pair_coeff    2    5 buck                 0            1           0
pair_coeff    2    5 lj/cut/coul/long	  0.000	      0.0
pair_coeff    3    5 morse     		  0 	       0           0  # Hw Hw
pair_coeff    3    5 buck                 0            1           0
pair_coeff    3    5 lj/cut/coul/long	  0.000	      0.0
pair_coeff    4    5 morse     		  0 	       0           0  # Hw Hw
pair_coeff    4    5 buck                 0            1           0
pair_coeff    4    5 lj/cut/coul/long	  0.000	      0.0
pair_coeff    5    5 morse     		  0 	       0           0  # Hw Hw
pair_coeff    5    5 buck                 0            1           0
pair_coeff    5    5 lj/cut/coul/long	  0.000	      0.0



bond_style	harmonic
angle_style	harmonic
dihedral_style	none
improper_style	none

bond_coeff	1 1000.00 1.000
angle_coeff	1 100.0 109.47


#------ Define Settings -----

# ----- Run Minimization -----
fix 		BRX all box/relax iso 1.013
minimize	1e-25 1e-25 5000 10000 # Performs actual minimization
PPPM initialization ...
WARNING: System is not charge neutral, net charge = -0.256 (../kspace.cpp:302)
  using 12-bit tables for long-range coulomb (../kspace.cpp:321)
  G vector (1/distance) = 0.201677
  grid = 36 50 24
  stencil order = 5
  estimated absolute RMS force accuracy = 0.00104623
  estimated relative force accuracy = 7.26566e-05
  using double precision FFTs
  3d grid and FFT values/proc = 65395 43200
Neighbor list info ...
  update every 1 steps, delay 0 steps, check yes
  max neighbors/atom: 2000, page size: 100000
  master list distance cutoff = 15.3
  ghost atom cutoff = 15.3
  binsize = 7.65, bins = 15 9 5
  3 neighbor lists, perpetual/occasional/extra = 3 0 0
  (1) pair morse, perpetual
      attributes: half, newton on
      pair build: half/bin/newton/tri
      stencil: half/bin/3d/newton/tri
      bin: standard
  (2) pair buck, perpetual, copy from (1)
      attributes: half, newton on
      pair build: copy
      stencil: none
      bin: none
  (3) pair lj/cut/coul/long, perpetual, copy from (1)
      attributes: half, newton on
      pair build: copy
      stencil: none
      bin: none
Per MPI rank memory allocation (min/avg/max) = 158.3 | 158.3 | 158.3 Mbytes
Step Temp Volume Cella Cellb Cellc CellGamma Pxx Pyy Pzz Pxy Pxz Pyz Lx Ly Lz Press PotEng 
       0            0    172711.88       73.664    73.664001       36.752          120   -204287.19   -203921.25   -275759.15    14.409285    148.37018    61.948388       73.664    63.794896       36.752    -227989.2   -308818.52 
      10            0    172194.26    73.590336    73.590337    36.715248          120   -198242.94   -198866.33   -269748.85    588.97858    1435.5224   -450.30382    73.590336    63.731101    36.715248   -222286.04   -308926.98 
      20            0    171677.68    73.516672    73.516673    36.678496          120   -191077.53   -192692.18   -263360.01     1165.624    2727.6277   -964.43094    73.516672    63.667306    36.678496   -215709.91   -308996.53 
      30            0    171162.13    73.443008    73.443009    36.641744          120   -183888.41   -186498.51   -257148.71    1744.8482     4025.246   -1480.2541    73.443008    63.603511    36.641744   -209178.54   -309067.82 
      40            0    170647.62    73.369344    73.369345    36.604992          120   -176591.87    -180202.5   -250775.47    2326.1933     5327.957   -1999.7045    73.369344    63.539716    36.604992   -202523.28   -309134.35 
      50            0    170134.13     73.29568    73.295681     36.56824          120    -169176.6   -173791.05   -244188.88    2910.1319    6636.4853   -2521.1481     73.29568    63.475922     36.56824   -195718.84    -309197.3 
      60            0    169621.68    73.222016    73.222017    36.531488          120   -161832.44   -167452.54   -237984.89    3497.0297    7948.4474   -3043.5901    73.222016    63.412127    36.531488   -189089.96   -309264.18 
      70            0    169110.26    73.148352    73.148353    36.494736          120   -154313.51   -160945.26   -231382.59     4084.979    9266.4393   -3568.4282    73.148352    63.348332    36.494736   -182213.79   -309324.31 
      80            0    168599.87    73.074688    73.074689    36.457984          120   -146727.36   -154375.08   -224656.79    4675.5959    10589.912   -4094.8955    73.074688    63.284537    36.457984   -175253.08   -309381.93 
      90            0     168090.5    73.001024    73.001025    36.421232          120   -138997.51   -147664.91   -217736.34    5268.6837    11918.343   -4623.8942    73.001024    63.220742    36.421232   -168132.92   -309436.17 
     100            0    167582.16     72.92736    72.927361     36.38448          120   -131385.06   -141075.34   -210773.05    5864.7862    13252.159   -5154.2584     72.92736    63.156947     36.38448   -161077.81   -309492.35 
     110            0    167074.85    72.853696    72.853697    36.347728          120   -123468.91   -134187.56   -203856.14    6462.1562    14591.394   -5687.5787    72.853696    63.093152    36.347728   -153837.54   -309542.61 
     120            0    166568.56    72.780032    72.780033    36.310976          120   -115499.94   -127250.56   -196831.36    7061.2631    15935.427   -6222.4159    72.780032    63.029357    36.310976   -146527.29   -309590.79 
     130            0     166063.3    72.706368    72.706369    36.274224          120   -107384.19    -120171.3   -189705.02     7663.649    17284.767   -6759.4066    72.706368    62.965562    36.274224   -139086.84   -309635.99 
     140            0    165559.06    72.632704    72.632705    36.237472          120   -99200.305   -113027.96   -182382.46    8268.2731    18639.438   -7299.0209    72.632704    62.901767    36.237472   -131536.91   -309678.32 
     150            0    165055.84     72.55904    72.559041     36.20072          120    -90918.86   -105789.98   -175057.03    8875.3836     19999.81   -7840.2227     72.55904    62.837973     36.20072   -123921.96   -309718.81 
     160            0    164553.64    72.485376    72.485377    36.163968          120   -82563.292    -98483.38   -167733.11    9484.4764     21364.74   -8382.6618    72.485376    62.774178    36.163968   -116259.93   -309757.34 
     170            0    164052.47    72.411712    72.411713    36.127216          120   -74037.819   -91010.759   -160288.14     10095.63    22735.483   -8927.9588    72.411712    62.710383    36.127216   -108445.57   -309792.48 
     180            0    163552.31    72.338048    72.338049    36.090464          120   -65477.831   -83505.203   -152659.46    10709.626    24111.391   -9475.5099    72.338048    62.646588    36.090464    -100547.5   -309825.43 
     190            0    163053.16    72.264384    72.264385    36.053712          120   -56819.212   -75906.737   -145004.17    11325.976    25492.808   -10025.227    72.264384    62.582793    36.053712   -92576.705   -309855.98 
     200            0    162555.04     72.19072    72.190721     36.01696          120   -48088.266   -68239.589   -137452.01    11944.634    26878.889    -10577.11     72.19072    62.518998     36.01696   -84593.288   -309885.34 
     210            0    162057.93    72.117056    72.117057    35.980208          120   -39178.258   -60397.247   -129634.38    12565.966    28270.536   -11130.742    72.117056    62.455203    35.980208   -76403.296   -309910.55 
     220            0    161561.83    72.043392    72.043393    35.943456          120   -30205.018    -52497.11   -121651.08    13189.161    29667.374   -11685.864    72.043392    62.391408    35.943456   -68117.737   -309933.09 
     230            0    161066.75    71.969728    71.969729    35.906704          120   -21035.612   -44403.637   -113441.92    13815.548    31069.445   -12242.698    71.969728    62.327613    35.906704   -59627.055   -309951.47 
     240            0    160572.68    71.896064    71.896065    35.869952          120   -11794.496   -36241.784   -105241.89    14442.673    32476.119   -12802.008    71.896064    62.263818    35.869952   -51092.725   -309968.15 
     250            0    160079.62      71.8224    71.822401      35.8332          120   -2654.2413   -28185.619   -96951.481    15070.759    33887.261   -13362.707      71.8224    62.200024      35.8332   -42597.114   -309985.14 
     260            0    159587.58    71.748736    71.748737    35.796448          120    6151.9357   -20466.853   -90464.359    15700.772     35302.34   -13925.197    71.748736    62.136229    35.796448   -34926.426   -310036.33 
     270            0    159096.54    71.675072    71.675073    35.759696          120    15712.256   -11997.286   -82006.734    16332.743    36720.305   -14488.438    71.675072    62.072434    35.759696   -26097.255   -310045.31 
     277            0    159068.85    71.670914    71.670914    35.757621          120    16251.906   -11519.157   -81526.648    16368.436     36800.68    -14520.35    71.670914    62.068833    35.757621   -25597.966   -310045.79 
Loop time of 150.477 on 1 procs for 277 steps with 15232 atoms

100.0% CPU use with 1 MPI tasks x no OpenMP threads

Minimization stats:
  Stopping criterion = linesearch alpha is zero
  Energy initial, next-to-last, final = 
          -308818.5199     -310045.800013     -310045.800013
  Force two-norm initial, final = 73731.1 7918.09
  Force max component initial, final = 73730.9 7836.66
  Final line search alpha, max atom move = 1.90147e-16 1.49012e-12
  Iterations, force evaluations = 277 383

MPI task timing breakdown:
Section |  min time  |  avg time  |  max time  |%varavg| %total
---------------------------------------------------------------
Pair    | 134.41     | 134.41     | 134.41     |   0.0 | 89.32
Bond    | 0.006557   | 0.006557   | 0.006557   |   0.0 |  0.00
Kspace  | 4.188      | 4.188      | 4.188      |   0.0 |  2.78
Neigh   | 7.0085     | 7.0085     | 7.0085     |   0.0 |  4.66
Comm    | 0.10198    | 0.10198    | 0.10198    |   0.0 |  0.07
Output  | 0.0029755  | 0.0029755  | 0.0029755  |   0.0 |  0.00
Modify  | 0          | 0          | 0          |   0.0 |  0.00
Other   |            | 4.761      |            |       |  3.16

Nlocal:    15232 ave 15232 max 15232 min
Histogram: 1 0 0 0 0 0 0 0 0 0
Nghost:    47648 ave 47648 max 47648 min
Histogram: 1 0 0 0 0 0 0 0 0 0
Neighs:    1.08767e+07 ave 1.08767e+07 max 1.08767e+07 min
Histogram: 1 0 0 0 0 0 0 0 0 0

Total # of neighbors = 10876672
Ave neighs/atom = 714.067
Ave special neighs/atom = 0.0504202
Neighbor list builds = 24
Dangerous builds = 0

reset_timestep	0
timestep	0.0001
velocity       	all create ${probeTemp} 87287 loop geom
velocity       	all create 1800 87287 loop geom
fix		1 all npt temp ${probeTemp} ${probeTemp} 0.1 iso 1.013 1.013 5.0
fix		1 all npt temp 1800 ${probeTemp} 0.1 iso 1.013 1.013 5.0
fix		1 all npt temp 1800 1800 0.1 iso 1.013 1.013 5.0
run		10000 # Warmup
PPPM initialization ...
  using 12-bit tables for long-range coulomb (../kspace.cpp:321)
  G vector (1/distance) = 0.203017
  grid = 36 50 24
  stencil order = 5
  estimated absolute RMS force accuracy = 0.00096252
  estimated relative force accuracy = 6.68433e-05
  using double precision FFTs
  3d grid and FFT values/proc = 65395 43200
Per MPI rank memory allocation (min/avg/max) = 163 | 163 | 163 Mbytes
Step Temp Volume Cella Cellb Cellc CellGamma Pxx Pyy Pzz Pxy Pxz Pyz Lx Ly Lz Press PotEng 
       0         1800    159068.85    71.670914    71.670914    35.757621          120    39853.512    12599.444   -57719.645    16699.857    36965.066   -14614.788    71.670914    62.068833    35.757621   -1755.5633   -310045.03 
      10    1851.1144    159068.83    71.670911    71.670912     35.75762          120   -26753.175   -19646.556   -115882.17   -1981.2853   -6580.8017    2625.0556    71.670911    62.068831     35.75762   -54093.966   -310143.64 
      20    1717.4872    159068.78    71.670903    71.670904    35.757616          120   -71475.733   -42290.995   -152872.34   -15343.893   -34401.152     15037.74    71.670903    62.068823    35.757616   -88879.691   -309869.39 
      30    1663.4091    159068.68    71.670889    71.670889    35.757609          120    18854.779    4507.4581   -71138.881    8706.3008     21372.55   -7799.0723    71.670889    62.068811    35.757609   -15925.548   -309766.16 
      40    1525.9934    159068.56     71.67087     71.67087    35.757599          120     27734.65    11232.536   -60248.562    11140.975    24572.033   -9881.3145     71.67087    62.068795    35.757599   -7093.7921   -309493.73 
      50    1375.3856     159068.4    71.670846    71.670847    35.757588          120    -61393.06   -34736.435   -134350.72   -11755.064   -29563.313    12789.047    71.670846    62.068774    35.757588   -76826.739   -309194.52 
      60    1309.0111    159068.21    71.670818    71.670819    35.757574          120   -29555.656   -18157.447   -100222.62   -5083.1426   -9873.9019    5825.6575    71.670818     62.06875    35.757574   -49311.906   -309068.65 
      70    1135.3569       159068    71.670786    71.670786    35.757557          120    45374.304    24172.847   -27162.453    11956.189     31283.37   -11042.771    71.670786    62.068722    35.757557    14128.233   -308718.26 
      80     1152.313    159067.76     71.67075     71.67075     35.75754          120   -10830.561   -6907.0508   -72718.688    230.79512   -1281.9395    1002.1699     71.67075    62.068691     35.75754     -30152.1   -308759.46 
      90    1038.7146     159067.5    71.670711    71.670711     35.75752          120   -64771.748   -40075.044   -115123.42   -10792.325   -27621.191    11677.223    71.670711    62.068657     35.75752   -73323.403   -308526.62 
     100    1097.6142    159067.21    71.670667    71.670668    35.757498          120    13541.453    7132.9194    -33250.67    3685.9778     13476.54   -3239.4044    71.670667    62.068619    35.757498   -4192.0992   -308647.89 
     110    1092.2411     159066.9    71.670621    71.670622    35.757476          120    29787.163    16803.701   -11831.279    6618.8754     20186.47   -5532.2365    71.670621     62.06858    35.757476    11586.528   -308632.89 
     120    1129.0449    159066.58    71.670573    71.670574    35.757451          120   -54180.644   -38497.505   -87737.382   -6017.3658    -18385.45    6529.3667    71.670573    62.068538    35.757451    -60138.51   -308703.95 
     130    1209.2009    159066.24    71.670521    71.670522    35.757426          120   -39977.926   -29649.705   -64065.783   -3749.9604   -9267.2606    3402.1243    71.670521    62.068493    35.757426   -44564.472   -308864.12 
     140    1191.9357    159065.87    71.670466    71.670467    35.757398          120    30974.944    18809.558    15355.929    5125.1417    19690.009   -4171.8777    71.670466    62.068445    35.757398    21713.477   -308822.03 
     150    1303.6136    159065.49    71.670409     71.67041     35.75737          120    -11014.15   -11218.398    -23767.13     214.7424    1897.9235    181.79415    71.670409    62.068396     35.75737   -15333.226   -309048.69 
     160    1231.2107     159065.1     71.67035    71.670351     35.75734          120   -67846.707   -53746.297   -76364.406   -5230.5999   -16771.154    4033.1864     71.67035    62.068344     35.75734   -65985.803   -308895.27 
     170     1318.937    159064.68    71.670288    71.670288    35.757309          120   -1553.6942   -3139.2851    5043.4051    1234.1051    5425.7935   -602.47933    71.670288     62.06829    35.757309    116.80857   -309074.49 
     180    1253.2713    159064.26    71.670224    71.670224    35.757277          120    24598.079    17544.911    39061.941    2593.0947    11350.753   -1615.1667    71.670224    62.068235    35.757277    27068.311    -308937.1 
     190    1267.7852    159063.82    71.670159    71.670159    35.757245          120   -46115.486   -39295.918    -36552.88   -2858.3556    -7707.348    1578.0792    71.670159    62.068179    35.757245   -40654.761   -308966.55 
     200    1267.1623    159063.38    71.670093    71.670093    35.757212          120   -41559.125   -35140.998   -21822.173   -1380.5589   -5838.7102    1414.2949    71.670093    62.068121    35.757212   -32840.765    -308964.1 
     210    1217.2783    159062.93    71.670025    71.670026    35.757178          120    29183.459    24723.878    67786.005    2298.0026     7099.372   -662.59675    71.670025    62.068063    35.757178    40564.447   -308859.27 
     220    1286.6625    159062.49    71.669958    71.669958    35.757145          120    2262.9972    1838.2835    37500.599   -99.200954    1868.5949   -77.257664    71.669958    62.068005    35.757145    13867.293    -309001.2 
     230    1208.6722    159062.04    71.669891    71.669892    35.757111          120   -53202.675   -46301.506   -24109.758   -2077.8562   -4971.0522    1314.2064    71.669891    62.067947    35.757111   -41204.646   -308836.83 
     240    1304.0858     159061.6    71.669825    71.669825    35.757078          120    5010.4171    5629.1319    55323.904    1057.1678     246.3172    344.88261    71.669825     62.06789    35.757078    21987.818   -309031.28 
     250    1243.1593    159061.17     71.66976    71.669761    35.757046          120    39609.461    36611.007    99944.811    1509.4734    2172.9446   -360.93668     71.66976    62.067834    35.757046     58721.76   -308901.87 
     260    1298.4178    159060.75    71.669698    71.669698    35.757015          120   -21587.418   -17958.449    24123.024   -1161.5325    621.90731     478.0447    71.669698     62.06778    35.757015   -5140.9476   -309013.73 
     270    1277.0899    159060.35    71.669638    71.669638    35.756985          120   -24525.537   -20606.404    27330.622     -436.202    86.489784    271.97635    71.669638    62.067728    35.756985   -5933.7731    -308967.8 
     280    1251.6454    159059.97     71.66958    71.669581    35.756956          120    46722.978    43845.621    121518.62    1543.6108   -1614.2535   -553.05056     71.66958    62.067678    35.756956     70695.74   -308913.91 
     290    1277.5538    159059.62    71.669527    71.669528     35.75693          120    29774.053    29794.144    99245.107    317.54522    57.408497    129.84133    71.669527    62.067632     35.75693    52937.768   -308967.77 
     300     1172.845    159059.29    71.669479    71.669479    35.756905          120   -27235.027   -21992.547    29364.642   -1022.0958    3947.7718   -434.31007    71.669479     62.06759    35.756905   -6620.9773   -308752.24 
     310    1222.7284       159059    71.669434    71.669435    35.756883          120    24180.157    23119.854    100039.79     516.6211   -937.92237   -1571.7376    71.669434    62.067551    35.756883    49113.267   -308857.05 
     320     1109.992    159058.74    71.669396    71.669396    35.756864          120    65153.052    61773.154    152353.64    1006.2758   -5050.2533    291.28623    71.669396    62.067518    35.756864    93093.281   -308625.07 
     330    1138.6796    159058.53    71.669363    71.669364    35.756848          120    6340.5372    10383.798    77319.694   -222.77184    2565.2422   -384.79291    71.669363     62.06749    35.756848     31348.01    -308685.9 
     340    1085.3405    159058.35    71.669337    71.669338    35.756835          120   -7211.6755   -3633.3245    63737.099    121.81727    4229.0922   -3270.8897    71.669337    62.067467    35.756835      17630.7   -308575.39 
     350      1077.05    159058.22    71.669317    71.669317    35.756825          120    64151.778    59605.674    153826.34    896.25152   -6196.4409   -231.74438    71.669317     62.06745    35.756825    92527.932   -308557.34 
     360      1109.01    159058.13    71.669304    71.669304    35.756818          120    52387.933    51066.139       137247      559.719   -4319.6009     969.5261    71.669304    62.067438    35.756818     80233.69   -308621.23 
     370    1062.2515    159058.09    71.669298    71.669299    35.756815          120   -13426.098   -5858.5782    56747.632    883.01257    6002.1261   -3869.7771    71.669298    62.067434    35.756815    12487.652   -308520.68 
     380    1157.0674     159058.1    71.669299    71.669299    35.756816          120    30542.046    30626.604    110865.02    1162.9718    -793.5124     -2671.68    71.669299    62.067434    35.756816    57344.557   -308713.01 
     390         1099    159058.15    71.669307    71.669307     35.75682          120    78918.813    71445.615    166513.15    535.87343   -8617.3918    2096.5289    71.669307    62.067441     35.75682    105625.86   -308587.65 
     400    1195.5142    159058.26    71.669323    71.669323    35.756828          120     19668.67    23385.795     93897.64    1275.5345    1115.2613    -1792.048    71.669323    62.067455    35.756828    45650.702   -308782.67 
     410    1165.3998    159058.41    71.669345    71.669346    35.756839          120    -5304.378    3086.6058    63755.555    2189.1914    5366.0581   -5429.8377    71.669345    62.067474    35.756839    20512.594   -308715.41 
     420    1205.2611     159058.6    71.669375    71.669376    35.756854          120    70127.328    62811.845    148767.13    732.17922   -6129.2819    636.13362    71.669375      62.0675    35.756854      93902.1   -308792.73 
     430    1239.1254    159058.85    71.669412    71.669413    35.756872          120    66920.546    60231.492    141825.68    505.80854   -5116.1695      1294.98    71.669412    62.067533    35.756872     89659.24   -308857.87 
     440    1200.6428    159059.16    71.669458    71.669458    35.756895          120   -5595.6733    4517.9542     56760.15    2553.7205    5804.0062   -4970.8113    71.669458    62.067572    35.756895     18560.81   -308773.87 
     450    1287.3639     159059.5     71.66951    71.669511    35.756921          120    32605.995     34107.52    96757.381    2075.3222    324.57896   -2967.3954     71.66951    62.067617    35.756921    54490.299   -308948.91 
     460    1216.6199     159059.9     71.66957    71.669571    35.756951          120    90704.917    77635.066    157643.56    173.95846   -7143.8081    1778.1147     71.66957    62.067669    35.756951    108661.18    -308797.7 
     470     1310.684    159060.36    71.669638    71.669638    35.756985          120    34308.953    35191.287    92024.669    1446.4097    741.26904   -1781.3029    71.669638    62.067728    35.756985    53841.636   -308988.54 
     480    1258.3024    159060.86    71.669713    71.669714    35.757022          120   -2898.4444     8308.569    48388.648    3201.8926    5100.0706   -4833.5503    71.669713    62.067793    35.757022    17932.924   -308874.83 
     490    1320.6551     159061.4    71.669795    71.669796    35.757063          120     74035.77    65606.672    126897.51    1332.0953    -4149.786   -440.92942    71.669795    62.067864    35.757063    88846.652   -308998.93 
     500    1328.8014       159062    71.669885    71.669886    35.757108          120     79215.61    69018.743    127859.82     459.5389   -4267.2283    365.75776    71.669885    62.067942    35.757108     92031.39   -309010.66 
     510    1323.8881    159062.65    71.669983    71.669984    35.757157          120     258.5391    10877.359    40965.043    2516.6085    4773.8531   -3238.7733    71.669983    62.068027    35.757157     17366.98   -308995.07 
     520     1403.089    159063.35    71.670087    71.670088    35.757209          120     28942.07    33278.928    66001.197    2672.6557    1270.3262   -2179.0528    71.670087    62.068117    35.757209    42740.732   -309153.57 
     530    1341.4204    159064.08    71.670198    71.670198    35.757264          120    94306.487    81805.086    127106.93    863.09427   -5104.6092    243.28377    71.670198    62.068213    35.757264    101072.84   -309020.46 
     540    1451.5023    159064.87    71.670316    71.670317    35.757323          120    42049.288    42531.012     68462.38    1247.1277    948.19614   -950.27807    71.670316    62.068315    35.757323    51014.227   -309243.34 
     550    1380.2899     159065.7     71.67044    71.670441    35.757385          120    -5727.382    8387.1156     14382.23    2672.2548    5128.1581   -1732.5342     71.67044    62.068423    35.757385    5680.6544   -309091.22 
     560    1458.3679    159066.56    71.670571    71.670571     35.75745          120    70273.528    66553.549    82742.084    1677.1906   -2012.5551    -609.9868    71.670571    62.068535     35.75745     73189.72   -309248.39 
     570    1435.9816    159067.47    71.670707    71.670708    35.757518          120    85072.104    76923.098    90253.513    792.42059   -2269.8422   -661.80046    71.670707    62.068654    35.757518    84082.905   -309197.69 
     580    1440.0891    159068.42     71.67085     71.67085     35.75759          120    5749.6438    17388.795    4876.9558    1695.3794    4772.4963   -559.16986     71.67085    62.068777     35.75759    9338.4648   -309203.07 
     590    1479.9231    159069.41    71.670998    71.670998    35.757663          120    24741.766     34530.99    14532.096    1931.9867    1981.0215   -457.26954    71.670998    62.068905    35.757663    24601.617   -309282.08 
     600    1425.4523    159070.43    71.671151    71.671151     35.75774          120     97137.66    89271.756    76600.625    840.26363   -2887.3044   -1864.4568    71.671151    62.069038     35.75774    87670.014   -309165.76 
     610    1505.4559    159071.49     71.67131     71.67131    35.757819          120    53519.737      54495.5    27152.213    831.08977    1289.6664   -909.87443     71.67131    62.069175    35.757819    45055.817   -309328.86 
     620    1421.8233    159072.58    71.671473    71.671474    35.757901          120   -2168.5368    14530.338   -35887.996    1749.8242    3669.6876    691.13169    71.671473    62.069317    35.757901    -7842.065   -309152.86 
     630    1501.7454     159073.7    71.671642    71.671642    35.757984          120    70645.317    72195.342    25001.877    1195.0158   -1568.8343   -2119.0088    71.671642    62.069463    35.757984    55947.512   -309315.78 
     640    1444.7382    159074.85    71.671814    71.671815    35.758071          120    96006.581    89185.242    43337.986    460.26984   -2374.6458   -2675.5813    71.671814    62.069613    35.758071    76176.603   -309195.19 
     650    1465.3382    159076.03    71.671992    71.671993    35.758159          120    17600.367    28776.741   -39225.592    1128.2051    2279.6077    856.39692    71.671992    62.069767    35.758159     2383.839   -309235.58 
     660    1473.1991    159077.24    71.672174    71.672175     35.75825          120    26202.963    38895.144   -40855.444    1721.1655    656.66558    -372.7727    71.672174    62.069924     35.75825    8080.8878   -309249.86 
     670    1419.5177    159078.48    71.672359     71.67236    35.758343          120     102900.2    96771.501    27960.046    790.27594   -4006.1293   -3639.4158    71.672359    62.070085    35.758343    75877.249   -309137.18 
     680    1478.6959    159079.74    71.672549     71.67255    35.758437          120    66419.546    66492.667   -10697.982    472.28238   -1363.6467   -821.39203    71.672549    62.070249    35.758437    40738.077   -309258.38 
     690    1382.5236    159081.03    71.672743    71.672744    35.758534          120    3996.5713    20400.501   -79125.524    1525.1177    1956.7543    1628.6338    71.672743    62.070417    35.758534   -18242.817   -309058.22 
     700    1443.6589    159082.34     71.67294    71.672941    35.758632          120    71068.115    73238.214   -20197.934    1321.3803   -2639.4796   -2479.3385     71.67294    62.070588    35.758632    41369.465   -309184.24 
     710    1365.9598    159083.68    71.673141    71.673141    35.758732          120    103586.29    95869.957    10653.578    298.73336    -4629.929   -2674.4344    71.673141    62.070761    35.758732    70036.609   -309022.13 
     720    1382.1641    159085.04    71.673345    71.673346    35.758834          120    26772.215    36461.212   -67405.693    762.31658    647.74815    1714.8158    71.673345    62.070938    35.758834   -1390.7555   -309055.09 
     730    1359.2584    159086.42    71.673552    71.673553    35.758938          120    24921.527    36780.088    -76309.26     1643.563    395.37702    143.74548    71.673552    62.071118    35.758938   -4869.2152   -309006.82 
     740    1319.1095    159087.82    71.673762    71.673763    35.759043          120    102632.39    95004.306   -1442.4961    470.55268   -5037.1166   -2930.7283    71.673762      62.0713    35.759043    65398.067   -308921.81 
     750    1362.8033    159089.24    71.673976    71.673977    35.759149          120    73891.056    71290.864   -29048.761    86.498211   -2212.0475   -102.03891    71.673976    62.071485    35.759149    38711.053   -309010.78 
     760     1273.382    159090.68    71.674193    71.674193    35.759257          120    5239.6736    18755.851   -101422.73    1363.8746    2272.5488    2149.2306    71.674193    62.071672    35.759257   -25809.069   -308823.84 
     770    1353.4084    159092.14    71.674411    71.674412    35.759366          120    64309.349    64218.239   -46514.806    886.70259   -2795.1233   -1471.9297    71.674411    62.071862    35.759366    27337.594    -308987.2 
     780     1269.605    159093.61    71.674633    71.674633    35.759477          120    103841.06    93450.587   -4714.5306   -182.89381   -4230.1956   -2079.6304    71.674633    62.072053    35.759477    64192.372    -308811.1 
     790    1316.9648    159095.11    71.674857    71.674858    35.759589          120    30940.903    35817.148   -78557.576    634.94128    1569.5121    1421.6778    71.674857    62.072248    35.759589    -3933.175   -308907.27 
     800    1287.7935    159096.61    71.675083    71.675084    35.759702          120    17783.691    25619.156   -95967.261     1138.857     496.1692    761.90468    71.675083    62.072444    35.759702   -17521.471   -308844.65 
     810    1268.4613    159098.13    71.675311    71.675312    35.759815          120    94491.346    86243.195   -15398.783   -51.553137   -4323.6472   -2414.5181    71.675311    62.072641    35.759815    55111.919   -308802.87 
     820     1306.054    159099.67    71.675542    71.675543     35.75993          120    75373.457    70108.333   -32505.982   -98.722463   -1257.2233    -1217.361    71.675542    62.072841     35.75993    37658.603   -308878.55 
     830    1225.9941    159101.22    71.675775    71.675775    35.760047          120    3912.6285    12557.508   -108908.34     1014.857    2627.8522    1170.6744    71.675775    62.073043    35.760047   -30812.735   -308710.65 
     840    1304.4218    159102.78    71.676009     71.67601    35.760164          120    52671.132    53654.185   -56013.575    337.92909   -1843.3707   -1033.9938    71.676009    62.073245    35.760164    16770.581    -308871.2 
     850    1213.6931    159104.35    71.676245    71.676246    35.760281          120    98171.665    90545.799   -2732.6724   -733.23762    -3376.518   -2597.1576    71.676245     62.07345    35.760281    61994.931   -308680.68 
     860    1284.6498    159105.94    71.676484    71.676485    35.760401          120    34531.327    36486.571   -72853.348    637.34568    1268.9897    -615.5071    71.676484    62.073657    35.760401   -611.81662    -308825.6 
     870    1233.2825    159107.55    71.676725    71.676726    35.760521          120     11009.57    18921.815   -98079.571    991.72434    1418.1317   -132.64461    71.676725    62.073865    35.760521   -22716.062   -308716.49 
     880    1256.6507    159109.16    71.676967    71.676968    35.760642          120    82973.044    81785.747   -10342.059   -1249.6243   -2430.1907   -2075.6937    71.676967    62.074075    35.760642    51472.244    -308761.5 
     890    1285.1947    159110.79    71.677212    71.677212    35.760764          120    75776.311    73612.089   -18162.761   -605.08371   -1390.9255   -1878.7227    71.677212    62.074287    35.760764     43741.88   -308817.35 
     900    1238.6252    159112.44    71.677459     71.67746    35.760887          120    7122.8829    13051.377    -100434.7    1647.4658    1380.1194   -582.15383    71.677459    62.074501    35.760887   -26753.481   -308717.53 
     910    1332.5541    159114.09    71.677708    71.677709    35.761011          120    43151.898    48334.014   -50747.996   -444.83692   -538.60874   -1347.8019    71.677708    62.074717    35.761011    13579.305   -308907.84 
     920    1259.3621    159115.76    71.677959     71.67796    35.761136          120    93337.729    93329.777    14076.446   -2110.2355   -1854.5862   -1945.5647    71.677959    62.074934    35.761136    66914.651   -308751.83 
     930    1356.7117    159117.46    71.678213    71.678214    35.761263          120    41549.787    43454.031   -52628.483    699.94427   -736.08883   -1043.5803    71.678213    62.075154    35.761263    10791.778   -308949.47 
     940    1304.7716    159119.17     71.67847    71.678471    35.761391          120    11065.919    16988.213   -87558.703     1607.233    -979.1126   -836.20188     71.67847    62.075377    35.761391   -19834.857    -308837.6 
     950    1359.4445    159120.89    71.678729     71.67873    35.761521          120    79262.341    82233.034    4318.3777   -1917.4924   -1472.1485   -1221.1529    71.678729    62.075601    35.761521    55271.251   -308946.92 
     960    1365.5706    159122.64    71.678992    71.678992    35.761652          120    82379.349    82777.579    7422.8546   -1622.1089   -1292.9383   -860.35755    71.678992    62.075828    35.761652    57526.594   -308955.57 
     970    1348.3699    159124.41    71.679258    71.679258    35.761784          120    16387.508    19644.883   -77711.693     1907.023   -2411.3462   -351.21191    71.679258    62.076059    35.761784   -13893.101   -308915.79 
     980     1416.587     159126.2    71.679527    71.679527    35.761919          120     44718.07    48719.938   -36066.541    310.60365   -2440.4807   -283.56029    71.679527    62.076292    35.761919    19123.822   -309053.46 
     990    1347.6688    159128.02    71.679799      71.6798    35.762055          120    100534.47    100685.05    37580.494   -2608.3366   -918.70962   -58.896507    71.679799    62.076528    35.762055    79600.004   -308906.74 
    1000    1440.9732    159129.87    71.680077    71.680077    35.762193          120    55856.097    56141.204   -21715.661    -354.4064   -2213.7338   -86.958806    71.680077    62.076768    35.762193     30093.88   -309096.22 
    1010    1368.2209    159131.74    71.680358    71.680359    35.762333          120    19381.309     22532.62   -65682.488     1843.484   -3809.7078   -278.55557    71.680358    62.077012    35.762333    -7922.853   -308941.92 
    1020    1430.7189    159133.64    71.680643    71.680644    35.762476          120     85883.53    86756.035    23274.296    -1216.782   -1338.4434    684.50533    71.680643    62.077259    35.762476    65304.621   -309067.64 
    1030    1413.7997    159135.58    71.680934    71.680934    35.762621          120    97143.452    95741.263    37520.002    -1999.073   -831.03006     660.6077    71.680934     62.07751    35.762621    76801.572   -309028.94 
    1040    1403.4452    159137.55     71.68123    71.681231    35.762768          120    30938.424    31598.017   -46313.375      823.088   -3709.5784   -683.15713     71.68123    62.077767    35.762768    5407.6886   -309004.41 
    1050    1450.2222    159139.55    71.681531    71.681531    35.762918          120    51071.245    52289.719   -16868.221    517.06649   -2632.9596    64.076993    71.681531    62.078027    35.762918    28830.914   -309097.82 
    1060    1387.4683    159141.59    71.681837    71.681838    35.763071          120    111713.08    110321.69    62069.508   -1276.7909    319.31221    978.95998    71.681837    62.078293    35.763071    94701.426   -308964.41 
    1070    1464.0635    159143.68     71.68215    71.682151    35.763227          120    72858.304    71253.871    13727.411   -405.80791   -1727.2859   -322.70456     71.68215    62.078564    35.763227    52613.195   -309120.37 
    1080    1382.3779     159145.8    71.682469     71.68247    35.763387          120    29087.636    28792.176   -38925.743    605.37306   -3658.5834   -778.40005    71.682469     62.07884    35.763387     6318.023   -308948.49 
    1090    1447.1106    159147.97    71.682794    71.682795    35.763549          120    92558.667    91414.448    44681.773    344.55464    170.59436    110.93972    71.682794    62.079121    35.763549    76218.296   -309079.88 
    1100    1399.6587    159150.18    71.683126    71.683127    35.763714          120    111213.99    108958.79    70884.044     115.1901    898.88666   -475.60753    71.683126    62.079409    35.763714    97018.941   -308979.35 
    1110    1402.5606    159152.44    71.683466    71.683466    35.763884          120    44319.014    43054.884   -10932.229     392.9937   -2801.7504   -391.11703    71.683466    62.079703    35.763884    25480.557    -308982.7 
    1120    1424.1671    159154.75    71.683812    71.683813    35.764057          120    55668.813    54801.571    6581.0096    964.94869   -1123.3118   -216.99345    71.683812    62.080003    35.764057    39017.131   -309024.99 
    1130    1360.4521     159157.1    71.684166    71.684166    35.764233          120    119594.12    117015.78    90067.959    1146.7281    2152.2275   -1494.8072    71.684166    62.080309    35.764233    108892.62    -308890.9 
    1140    1436.6191    159159.51    71.684528    71.684528    35.764414          120    85488.903    84102.576     50672.52    1144.5164   -180.48991   -516.09918    71.684528    62.080623    35.764414    73421.333   -309046.27 
    1150    1342.0775    159161.98    71.684898    71.684899    35.764598          120    33656.656     34857.16   -10842.223    1001.7923   -1865.0579    733.36567    71.684898    62.080943    35.764598    19223.865   -308848.29 
    1160    1417.0697    159164.49    71.685276    71.685276    35.764787          120    93658.268    91914.929     66212.54    1265.1307    1417.4149   -1453.1153    71.685276     62.08127    35.764787    83928.579   -309000.98 
    1170    1355.8144    159167.07    71.685662    71.685662    35.764979          120    119283.52    115885.56     100165.2    1653.4191    1751.9185   -1439.3166    71.685662    62.081605    35.764979    111778.09   -308871.49 
    1180    1376.6215     159169.7    71.686057    71.686058    35.765177          120    50181.179    52845.279    19992.773    1786.3273   -1039.6129    710.30926    71.686057    62.081947    35.765177     41006.41   -308912.48 
    1190    1377.8205    159172.39     71.68646    71.686461    35.765378          120    51403.173    54033.115     24691.21    647.47074   -93.968298   -614.00752     71.68646    62.082297    35.765378    43375.833   -308912.63 
    1200    1338.6472    159175.13    71.686872    71.686873    35.765583          120    121166.58    115802.93    107969.92    776.99499    2181.7821   -1178.6014    71.686872    62.082653    35.765583    114979.81   -308828.35 
    1210    1401.5278    159177.93    71.687293    71.687294    35.765793          120    91776.562    90708.431    77309.276    2343.7871    714.41643    154.79535    71.687293    62.083018    35.765793    86598.089    -308956.4 
    1220    1313.2945     159180.8    71.687723    71.687724    35.766008          120    28996.722     36785.48    9367.1056     1305.574   -840.11803   -953.78621    71.687723     62.08339    35.766008    25049.769   -308771.03 
    1230    1404.8433    159183.72    71.688162    71.688162    35.766227          120    87760.235    85618.468    75191.184   -523.67576    1585.0228   -930.72579    71.688162     62.08377    35.766227    82856.629   -308957.68 
    1240    1323.3718     159186.7    71.688609     71.68861     35.76645          120    122461.81    115145.13    116055.87    1163.9972    1945.9766    1140.8173    71.688609    62.084157     35.76645     117887.6   -308786.06 
    1250    1377.8963    159189.75    71.689066    71.689067    35.766678          120    49585.295    55839.025    41402.649    2661.6173   -70.748265   -1087.2197    71.689066    62.084553    35.766678    48942.323   -308896.22 
    1260    1357.1234    159192.85    71.689532    71.689532     35.76691          120     41383.57    47531.553    31502.962      7.94924    242.02692   -2730.3179    71.689532    62.084956     35.76691    40139.361   -308850.14 
    1270    1342.3807       159196    71.690006    71.690006    35.767147          120    117747.54     109659.3    112703.95   -199.32142     1728.282    1522.0128    71.690006    62.085367    35.767147    113370.26   -308817.14 
    1280    1394.3068    159199.22    71.690489     71.69049    35.767388          120    93191.538    91578.276    91924.135     2365.387    1012.3575    840.62987    71.690489    62.085786    35.767388    92231.316   -308921.34 
    1290    1322.5608    159202.51    71.690982    71.690982    35.767634          120    23037.289    33746.503    18951.033    2123.7492   -333.26472   -3895.8758    71.690982    62.086212    35.767634    25244.942   -308769.71 
    1300    1412.2098    159205.84    71.691483    71.691483    35.767883          120    77919.255    76607.132    72683.748     321.3542    123.06948   -934.50309    71.691483    62.086646    35.767883    75736.712   -308952.34 
    1310    1337.5837    159209.24    71.691992    71.691993    35.768138          120    120294.74     112991.4    119151.41     1510.098    541.94054    1915.5322    71.691992    62.087087    35.768138    117479.18   -308793.82 
    1320    1412.2387    159212.69    71.692511    71.692512    35.768397          120    50001.478    56500.218     49084.78    3513.0342    717.72236   -1675.8156    71.692511    62.087536    35.768397    51862.159   -308944.84 
    1330    1376.2335    159216.21    71.693038    71.693039     35.76866          120    32392.563    39010.826    26288.611    2193.7308   -412.91938   -2813.2175    71.693038    62.087993     35.76866        32564   -308866.67 
    1340    1398.8982    159219.77    71.693573    71.693574    35.768927          120     109316.6    103339.31    104758.81    1323.7728   -900.01854   -19.668565    71.693573    62.088456    35.768927    105804.91   -308909.36 
    1350    1431.1878     159223.4    71.694117    71.694118    35.769198          120    94425.423    93045.462    90906.642    3434.9603    912.83156    58.812236    71.694117    62.088928    35.769198    92792.509   -308972.48 
    1360    1382.4541    159227.08     71.69467    71.694671    35.769474          120    22212.255    30378.078    12125.527    3544.7345    892.43171   -1189.0619     71.69467    62.089406    35.769474    21571.954   -308867.86 
    1370    1469.8098    159230.81     71.69523    71.695231    35.769753          120    67234.334    67400.112    55584.297     1306.203   -1432.7896    -1623.278     71.69523    62.089891    35.769753    63406.248   -309044.84 
    1380     1394.477     159234.6    71.695799    71.695799    35.770037          120    116819.45    111945.71     107610.3     2419.179    73.383948   -1075.2998    71.695799    62.090384    35.770037    112125.15   -308885.02 
    1390    1476.1483    159238.44    71.696375    71.696376    35.770325          120    55060.083    57964.933    38625.376    3626.0641    1748.0107    424.77231    71.696375    62.090883    35.770325    50550.131   -309050.69 
    1400    1428.6069    159242.33     71.69696     71.69696    35.770616          120    27808.692    32056.789     3460.182    1658.9879     -409.172   -121.21237     71.69696    62.091389    35.770616    21108.554    -308948.4 
    1410    1459.2016    159246.27    71.697551    71.697551    35.770911          120    100777.79    98613.103    82022.056    1142.3738   -255.97889   -2090.7463    71.697551    62.091901    35.770911    93804.316   -309008.73 
    1420    1473.1277    159250.27     71.69815    71.698151     35.77121          120    96403.964     95193.01    74942.858    2542.9945    1854.8168   -712.60066     71.69815     62.09242     35.77121    88846.611   -309034.01 
    1430    1436.0598    159254.31    71.698757    71.698757    35.771513          120    25677.132    28253.357   -11172.188    2670.8107    1096.4708    1703.3839    71.698757    62.092945    35.771513    14252.767   -308954.06 
    1440    1504.7169    159258.39     71.69937     71.69937    35.771819          120    59265.324     60309.98     23535.95     961.9486    37.970152   -761.78681     71.69937    62.093476    35.771819    47703.751   -309093.23 
    1450    1429.0223    159262.52     71.69999     71.69999    35.772128          120    111451.32    110981.93    83085.364    974.10617    1740.5573   -2209.3077     71.69999    62.094013    35.772128    101839.54      -308933 
    1460    1512.4803     159266.7    71.700617    71.700617    35.772441          120    59243.824     59391.76    17391.789    2674.1524    1683.9164    1008.5135    71.700617    62.094556    35.772441    45342.458   -309102.73 
    1470    1443.1465    159270.92     71.70125    71.701251    35.772757          120    25153.897    25901.803   -29602.192    2218.9471    539.12822    1637.6182     71.70125    62.095105    35.772757    7151.1696   -308956.09 
    1480    1490.4311    159275.18    71.701889     71.70189    35.773075          120    91650.548    92557.828    48237.537    185.80133    1712.5248   -1631.9051    71.701889    62.095658    35.773075    77481.971    -309050.9 
    1490     1482.087    159279.48    71.702534    71.702535    35.773397          120    95040.899    96151.513    52148.398    946.22114    2157.7128   -948.09565    71.702534    62.096217    35.773397    81113.603   -309030.28 
    1500     1452.889    159283.82    71.703186    71.703186    35.773722          120     26809.17    26952.649   -37306.307    2908.5018    496.96795    2086.2036    71.703186    62.096781    35.773722    5485.1708   -308967.15 
    1510    1510.6391     159288.2    71.703842    71.703843     35.77405          120    51254.138    51194.308   -13795.049    1001.8924    1227.9381    254.66828    71.703842     62.09735     35.77405    29551.132   -309083.87 
    1520     1431.589    159292.61    71.704504    71.704505     35.77438          120    104897.04    107352.34    55632.774   -185.33794     3225.088   -1581.1429    71.704504    62.097923     35.77438    89294.051   -308917.02 
    1530    1513.4662    159297.06    71.705171    71.705172    35.774713          120    59688.331    61905.222   -1814.9071    1934.0376    1297.3955    754.51427    71.705171    62.098501    35.774713    39926.215    -309084.1 
    1540    1430.1752    159301.54    71.705844    71.705844    35.775048          120    20788.189    19918.028    -61022.53    2417.8308   -541.29518    1285.0566    71.705844    62.099083    35.775048   -6772.1044   -308908.98 
    1550    1492.8781    159306.05     71.70652    71.706521    35.775386          120    82913.546      84102.5    17434.045    396.48433    2736.6778   -1282.1003     71.70652    62.099669    35.775386    61483.363   -309036.13 
    1560    1457.0317    159310.59    71.707202    71.707202    35.775726          120    92471.518    95945.278    34152.276    868.45811    3147.8002   -561.52097    71.707202    62.100259    35.775726     74189.69   -308959.12 
    1570    1456.8389    159315.16    71.707888    71.707889    35.776068          120    26348.214    26988.812   -57620.774    2840.2039   -1174.3404    1025.8068    71.707888    62.100853    35.776068   -1427.9164   -308955.63 
    1580    1491.2365    159319.76    71.708578    71.708579    35.776413          120    42658.698    42171.065    -43538.31    1627.1985   -164.47789   -869.47228    71.708578    62.101451    35.776413    13763.818   -309024.27 
    1590    1425.5067    159324.39    71.709272    71.709272    35.776759          120     99079.49    101230.96    35545.085    615.87028    3428.9581   -1156.1261    71.709272    62.102052    35.776759    78618.513   -308884.64 
    1600    1508.1917    159329.04     71.70997    71.709971    35.777107          120    61602.783    62660.372   -14721.923    2312.3976    863.82349    235.41385     71.70997    62.102657    35.777107    36513.744   -309052.78 
    1610    1411.6624    159333.72    71.710673    71.710673    35.777458          120    16729.411    15693.567   -82432.473    2360.6273   -1822.4785   -499.84472    71.710673    62.103265    35.777458   -16669.832   -308850.35 
    1620     1485.738    159338.43    71.711378    71.711379     35.77781          120    74168.178    74730.772   -3414.7852    791.99117    1568.9307   -1195.6382    71.711378    62.103876     35.77781    48494.722   -309001.31 
    1630    1425.5432    159343.15    71.712087    71.712088    35.778163          120     93302.98    93503.307    23871.242    2024.6229    2228.5176    71.364915    71.712087     62.10449    35.778163    70225.843   -308873.68 
    1640    1438.4568    159347.91    71.712801    71.712801    35.778519          120    29880.137    28168.771   -66751.992    2434.8958   -390.46676   -160.28829    71.712801    62.105108    35.778519   -2901.0281   -308898.68 
    1650    1443.5409    159352.68    71.713517    71.713518    35.778877          120    34736.035     34963.07   -59608.014    560.76683    453.42241   -1344.7208    71.713517    62.105728    35.778877    3363.6969   -308906.57 
    1660    1397.9281    159357.48    71.714237    71.714237    35.779236          120    96430.607    96733.145    25779.752    2130.8008    1723.0525    524.50011    71.714237    62.106351    35.779236    72981.168   -308809.28 
    1670    1458.4728    159362.31     71.71496    71.714961    35.779597          120    68189.303    66257.622   -15679.886    2902.5726    575.47746    550.01962     71.71496    62.106978    35.779597    39589.013   -308932.62 
    1680    1373.6466    159367.15    71.715688    71.715688     35.77996          120    15322.676    15082.841   -87588.644     295.7579    662.86863   -2123.4746    71.715688    62.107608     35.77996   -19061.043   -308754.25 
    1690    1455.2932    159372.02    71.716418    71.716418    35.780324          120    68857.461    70366.164   -13297.998    1470.9628    1596.7837    -97.85927    71.716418     62.10824    35.780324    41975.209    -308920.5 
    1700    1384.3641    159376.91    71.717151    71.717152     35.78069          120    97760.883     97099.62    24217.561    3860.2745    380.86614    1756.0899    71.717151    62.108875     35.78069    73026.022   -308770.77 
    1710    1427.3859    159381.83    71.717889     71.71789    35.781058          120     35632.36    33834.849    -61536.71    1292.5204   -363.13511    -1816.386    71.717889    62.109514    35.781058    2643.4999   -308857.12 
    1720    1417.9161    159386.77     71.71863    71.718631    35.781428          120    32064.089     33290.93   -65175.658   -28.364682    1416.4939   -2043.9034     71.71863    62.110156    35.781428    59.787032   -308834.53 
    1730    1394.5349    159391.73    71.719374    71.719375    35.781799          120    97638.514    98887.753    22798.485     3993.368    785.32523    1769.7411    71.719374    62.110801    35.781799    73108.251   -308783.19 
    1740    1452.7863    159396.72    71.720123    71.720123    35.782172          120     76228.43     74828.96   -6771.7387    3419.5365   -1355.4637   -289.51135    71.720123    62.111449    35.782172    48095.217   -308900.43 
    1750    1378.5301    159401.74    71.720875    71.720876    35.782548          120     19408.72    19287.546   -83530.422   -983.79168   -440.66201   -3204.7641    71.720875    62.112101    35.782548   -14944.719   -308743.53 
    1760    1461.4118    159406.78    71.721631    71.721632    35.782925          120    68719.402    71069.534   -18354.262    1942.6216    1191.0916    382.68556    71.721631    62.112755    35.782925    40478.224   -308911.91 
    1770    1394.7615    159411.85    71.722391    71.722391    35.783304          120    103754.78    104277.95    30917.409    5238.7063   -883.36353    620.32508    71.722391    62.113413    35.783304    79650.047   -308770.03 
    1780    1447.8659    159416.94    71.723155    71.723156    35.783685          120    43955.251    44242.514   -48481.731    757.64186   -2036.6806    -2934.595    71.723155    62.114075    35.783685    13238.678   -308876.82 
    1790    1426.2254    159422.07    71.723924    71.723924    35.784069          120     32994.33    36370.863   -65413.508   -1139.5824    278.22875   -1246.7933    71.723924    62.114741    35.784069    1317.2283   -308828.71 
    1800    1426.4347    159427.22    71.724696    71.724696    35.784454          120    99348.925     102111.8    26031.485    4454.6193   -315.67831     553.2647    71.724696    62.115409    35.784454    75830.736   -308825.19 
    1810    1469.6321     159432.4    71.725473    71.725474    35.784842          120    84912.924    85753.074     9283.664    4153.3434   -2210.2704   -1870.0284    71.725473    62.116082    35.784842     59983.22      -308911 
    1820    1408.0426    159437.61    71.726255    71.726256    35.785232          120    23471.279     26969.13   -72694.153   -1141.9566   -1342.3003   -2283.2775    71.726255     62.11676    35.785232   -7417.9144   -308780.05 
    1830     1498.407    159442.85    71.727041    71.727042    35.785624          120    66070.838    71532.705   -14586.064    1531.6601   -447.26396   -4.5872315    71.727041     62.11744    35.785624    41005.826   -308963.17 
    1840    1420.7323    159448.13    71.727832    71.727832    35.786019          120    109077.24    110575.72    43969.567    5435.2417   -1897.3027   -968.55713    71.727832    62.118125    35.786019    87874.174   -308798.59 
    1850    1495.7553    159453.44    71.728628    71.728628    35.786416          120    51935.257    53600.745   -28614.962     1999.172   -2132.1394   -2251.2737    71.728628    62.118815    35.786416    25640.346   -308950.36 
    1860    1456.4418    159458.78    71.729429    71.729429    35.786815          120    30406.866    36563.779    -54578.29   -339.26198   -903.89577   -716.36013    71.729429    62.119508    35.786815    4130.7851   -308865.14 
    1870    1470.1302    159464.15    71.730234    71.730235    35.787217          120    99339.157    103027.31    36106.938     4048.151   -1312.9406   -435.76331    71.730234    62.120206    35.787217    79491.135      -308890 
    1880    1497.0243    159469.56    71.731046    71.731046    35.787622          120    92882.561    93280.272    30161.129    4424.1006   -1852.4767   -1450.8458    71.731046    62.120908    35.787622    72107.987   -308942.26 
    1890    1441.1565    159475.01    71.731862    71.731863     35.78803          120    26267.417      29875.6    -51127.28    111.42445   -1155.3267   -1332.9076    71.731862    62.121616     35.78803    1671.9124   -308823.45 
    1900    1516.1105    159480.49    71.732684    71.732685     35.78844          120    62915.085    68381.906   -2770.3514    1624.4694   -885.80708    -615.4216    71.732684    62.122327     35.78844    42842.213   -308975.95 
    1910     1432.081    159486.01    71.733512    71.733512    35.788852          120    112844.81    114007.63    61035.508    4993.3621    -1280.842   -626.61786    71.733512    62.123044    35.788852     95962.65   -308798.37 
    1920     1512.701    159491.57    71.734345    71.734346    35.789268          120    59681.857    59524.899   -1724.9964    2148.6628   -922.27373   -1313.2234    71.734345    62.123766    35.789268    39160.586   -308962.49 
    1930    1445.8453    159497.17    71.735185    71.735185    35.789687          120    29172.255    32989.727   -36215.425   -312.73244   -572.94492   -1397.2817    71.735185    62.124493    35.789687    8648.8525   -308821.03 
    1940    1488.1162     159502.8    71.736029     71.73603    35.790109          120    97817.688    101032.26     49072.47    3864.5391   -709.47148   -479.80132    71.736029    62.125225    35.790109    82640.806   -308905.15 
    1950    1485.9234    159508.48    71.736881    71.736881    35.790533          120    99311.596    98272.272    53372.757    4479.3927   -315.41868   -655.85344    71.736881    62.125962    35.790533    83652.208   -308897.24 
    1960    1453.5672    159514.21    71.737739    71.737739    35.790961          120     30671.62    29866.966   -26772.315    159.02624   -154.70527   -1831.5729    71.737739    62.126705    35.790961    11255.424   -308827.56 
    1970    1518.3055    159519.97    71.738602    71.738603    35.791392          120    58410.442    61383.955     8620.031    1182.5184    -293.1258   -1414.3647    71.738602    62.127453    35.791392    42804.809   -308958.38 
    1980     1438.681    159525.77    71.739472    71.739472    35.791826          120    113099.56    114600.17    77276.822    5140.6629     430.7689   0.53293363    71.739472    62.128206    35.791826    101658.85   -308790.36 
    1990     1521.941    159531.62    71.740349    71.740349    35.792263          120    65636.945    63257.472     22453.31    2802.4454    487.01443   -1305.5072    71.740349    62.128965    35.792263    50449.243    -308960.2 
    2000    1444.2391    159537.51    71.741232    71.741232    35.792704          120    27122.267    26308.054   -21620.403   -480.49474   -213.09183   -3029.6023    71.741232     62.12973    35.792704    10603.306   -308796.29 
    2010    1496.7694    159543.44    71.742121    71.742121    35.793148          120    92271.711    95356.313    59726.839    3158.0391    629.01046   -379.82822    71.742121      62.1305    35.793148    82451.621   -308902.74 
    2020    1467.9087    159549.42    71.743017    71.743017    35.793595          120    100729.95    101850.23    72436.434    4576.4283    856.97113    523.25515    71.743017    62.131276    35.793595    91672.204   -308840.21 
    2030    1455.9186    159555.44     71.74392     71.74392    35.794045          120    32483.956    30378.295   -8706.7376    877.42887   -100.85639   -3476.2112     71.74392    62.132058    35.794045    18051.838      -308813 
    2040     1489.814     159561.5    71.744829    71.744829    35.794499          120    51242.562    52706.607    16935.719    668.96884    314.43264   -2847.6999    71.744829    62.132845    35.794499    40294.963   -308880.96 
    2050    1423.4473    159567.61    71.745744    71.745745    35.794955          120    108709.92     113045.3    90090.698    3644.1861    602.07576    1797.3608    71.745744    62.133638    35.794955    103948.64   -308740.64 
    2060    1498.6557    159573.77    71.746667    71.746667    35.795416          120    67706.988    68898.363    39884.088    2580.0281   -102.37145   -1136.2446    71.746667    62.134437    35.795416    58829.813   -308893.76 
    2070    1414.7067    159579.97    71.747596    71.747597    35.795879          120    23223.029    23604.401   -12849.379    472.72476    297.40087   -5253.2442    71.747596    62.135242    35.795879    11326.017   -308717.33 
    2080    1481.2439    159586.21    71.748532    71.748532    35.796346          120    83793.338    87991.756    66023.562    1566.0991    648.32719   -12.252471    71.748532    62.136052    35.796346    79269.552   -308852.14 
    2090    1442.7109     159592.5    71.749474    71.749475    35.796816          120    100642.15    104240.12    85519.857    1903.1763    224.58485     1772.419    71.749474    62.136868    35.796816    96800.706   -308769.17 
    2100    1449.1257    159598.84    71.750424    71.750425     35.79729          120    33314.492     34922.58    1927.9768    1172.8561   -131.27768   -4174.1649    71.750424    62.137691     35.79729     23388.35    -308779.9 
    2110    1476.9216    159605.22     71.75138    71.751381    35.797767          120    42597.542    45867.415     18198.56    863.95033    565.47625   -3202.4549     71.75138    62.138518    35.797767    35554.506   -308834.06 
    2120    1428.6068    159611.64    71.752342    71.752343    35.798247          120    105695.33    109069.59    94560.357    252.94509    1186.8415    1895.0224    71.752342    62.139352    35.798247    103108.42   -308730.44 
    2130    1500.1837    159618.11    71.753312    71.753312    35.798731          120    71586.682     73748.48    49907.072    418.74672   -139.04117   -976.65556    71.753312    62.140192    35.798731    65080.744    -308875.4 
    2140    1424.8512    159624.63    71.754288    71.754289    35.799218          120    19197.449    22510.956   -11435.806    1074.7644   -797.09041   -3764.7671    71.754288    62.141037    35.799218    10090.866   -308716.07 
    2150    1501.1294    159631.18    71.755271    71.755271    35.799708          120    78245.004    81555.962    60986.165   -24.331932    1286.5087    401.97005    71.755271    62.141888    35.799708     73595.71   -308870.71 
    2160    1449.2303    159637.79     71.75626     71.75626    35.800202          120    103858.69    105737.84    88305.688   -676.59754    1216.5134    1182.8439     71.75626    62.142745    35.800202    99300.739   -308759.82 
    2170     1478.793    159644.44    71.757256    71.757257    35.800699          120    35812.868     38768.25    5924.9581    783.30364   -1954.6988   -2069.0406    71.757256    62.143607    35.800699    26835.359   -308817.48 
    2180    1488.7293    159651.13    71.758259    71.758259    35.801199          120    37307.997    41785.138    9443.1279    764.79478   -883.31287   -651.70944    71.758259    62.144475    35.801199    29512.088   -308834.69 
    2190    1452.1387    159657.86    71.759267    71.759268    35.801702          120    104964.23    107576.43    86731.591   -969.17741    2026.3927    1552.9465    71.759267    62.145349    35.801702    99757.418   -308755.42 
    2200    1524.0717    159664.64    71.760283    71.760283    35.802209          120    77118.913    78915.722     51075.81    39.058691   -785.28126   -138.41801    71.760283    62.146228    35.802209    69036.815   -308900.66 
    2210    1442.8809    159671.46    71.761305    71.761305    35.802719          120    18902.523    23023.314   -17780.284     1468.855   -3463.6035   -1307.9299    71.761305    62.147114    35.802719    8048.5177   -308729.43 
    2220    1530.1553    159678.32    71.762332    71.762333    35.803231          120    74071.226    77920.857    45178.389   -548.71246    475.45466    566.74542    71.762332    62.148004    35.803231    65723.491   -308906.84 
    2230    1467.0974    159685.22    71.763367    71.763367    35.803747          120    107003.59    108100.67    81065.548   -1064.7098    1262.7071    891.18394    71.763367    62.148899    35.803747     98723.27   -308772.61 
    2240    1512.8398    159692.17    71.764407    71.764408    35.804267          120    41471.966    43626.833    1956.0494    1585.8914   -3360.9244   -763.01491    71.764407    62.149801    35.804267    29018.283   -308864.43 
    2250    1502.5529    159699.16    71.765454    71.765455    35.804789          120    33776.882    38558.253   -8541.6451    736.40823   -2829.6359   -523.35302    71.765454    62.150707    35.804789    21264.497   -308839.71 
    2260    1489.4716    159706.18    71.766506    71.766507    35.805314          120    103682.99    104877.78    71219.769    -2019.338    1440.7905    414.77968    71.766506    62.151618    35.805314    93260.181   -308809.04 
    2270    1540.0261    159713.25    71.767565    71.767565    35.805842          120    83511.435    83307.422    45349.782     111.0769   -1060.1589   -111.07116    71.767565    62.152535    35.805842     70722.88    -308910.7 
    2280    1468.6583    159720.36    71.768629     71.76863    35.806373          120    19438.368      23945.8   -30949.743    2475.9177   -5462.7152   -347.10302    71.768629    62.153457    35.806373    4144.8082   -308759.55 
    2290    1557.8507     159727.5    71.769699      71.7697    35.806907          120     68698.16    71805.109    24967.769   -1300.6205   -1239.2154   -61.079726    71.769699    62.154383    35.806907    55157.013   -308940.96 
    2300    1475.5484    159734.68    71.770774    71.770775    35.807443          120    109453.65    107377.47    70312.153   -2156.7867    952.57823   -786.07175    71.770774    62.155314    35.807443    95714.425   -308767.23 
    2310     1543.908     159741.9    71.771856    71.771856    35.807983          120     46192.16    46741.685   -5434.7681     2279.451   -5134.5571   -91.161429    71.771856    62.156251    35.807983    29166.359   -308905.26 
    2320    1505.4173    159749.15    71.772942    71.772943    35.808525          120    28548.018    32921.045   -27150.577    1147.3681   -5663.3049    648.76154    71.772942    62.157192    35.808525    11439.495   -308822.42 
    2330    1511.5581    159756.44    71.774033    71.774034    35.809069          120    100007.18    99257.342    54840.968   -2447.2666     439.5338    -1036.967    71.774033    62.158137    35.809069    84701.829   -308832.07 
    2340    1543.5993    159763.76     71.77513    71.775131    35.809616          120    87315.503    84156.996    38010.546    167.88853   -2276.1449   -902.90189     71.77513    62.159087    35.809616    69827.682   -308894.92 
    2350    1485.3325    159771.12    71.776232    71.776233    35.810166          120    20214.294    21018.445   -42861.214    2602.6443   -8639.1871    1457.6962    71.776232    62.160041    35.810166   -542.82497   -308771.16 
    2360    1561.9787    159778.51    71.777339    71.777339    35.810718          120    61310.217    62868.791    4995.9821   -466.08679   -3211.4107    201.97421    71.777339    62.160999    35.810718     43058.33   -308926.71 
    2370    1485.7723    159785.93     71.77845     71.77845    35.811273          120    106859.31    105097.56    58510.086    -984.3637    332.62933   -2082.3743     71.77845    62.161961    35.811273    90155.653   -308765.04 
    2380    1557.4815    159793.39    71.779566    71.779566    35.811829          120    49598.455    47109.598   -12240.484    1810.4356   -7102.3771    720.55787    71.779566    62.162928    35.811829    28155.856   -308910.74 
    2390    1502.8057    159800.87    71.780686    71.780687    35.812389          120    23986.087    24564.532   -44605.931     1259.664   -7970.7965     1884.234    71.780686    62.163899    35.812389     1314.896    -308794.3 
    2400    1532.4417    159808.38    71.781811    71.781811    35.812949          120    91765.013      92864.3    37684.409   -502.68328   -178.47008   -1937.9247    71.781811    62.164872    35.812949    74104.574   -308852.19 
    2410    1536.9723    159815.92     71.78294     71.78294    35.813513          120    87021.509    86356.699    30855.975    692.94209   -2373.8289   -1570.6766     71.78294     62.16585    35.813513    68078.061   -308858.44 
    2420    1496.8337    159823.49    71.784073    71.784074    35.814078          120      20034.6    19460.206   -53274.715    1686.6411   -9315.2953    1902.9053    71.784073    62.166831    35.814078   -4593.3029   -308772.27 
    2430    1561.2033    159831.08     71.78521     71.78521    35.814645          120    52369.625    53966.503   -14029.523    112.78248   -3707.3643   -239.75605     71.78521    62.167816    35.814645    30768.868   -308902.15 
    2440    1483.3493     159838.7     71.78635    71.786351    35.815214          120    102603.86    104688.08    46991.576   -137.10164     802.6477   -3036.9044     71.78635    62.168804    35.815214    84761.173   -308738.16 
    2450    1558.7657    159846.35    71.787495    71.787496    35.815786          120    50928.683    51801.818   -17808.131    1724.9037   -5763.3168    47.739938    71.787495    62.169795    35.815786    28307.457   -308891.07 
    2460    1495.9219    159854.02    71.788644    71.788644    35.816359          120    18165.329    19410.265   -58906.745    1000.2871   -7046.6891     1883.093    71.788644     62.17079    35.816359   -7110.3837   -308758.09 
    2470    1534.2767    159861.71    71.789795    71.789796    35.816933          120    85043.895    87716.445    21370.543   -786.11289    233.78255   -2397.3605    71.789795    62.171787    35.816933    64710.294   -308834.48 
    2480    1528.2259    159869.43     71.79095    71.790951    35.817509          120    88201.806    90512.588    23888.369    690.36864   -1030.5054   -2502.9837     71.79095    62.172788    35.817509    67534.254   -308818.63 
    2490    1501.9893    159877.17     71.79211     71.79211    35.818088          120     19418.79    21111.728   -59852.422    1931.8702   -6525.4951    2731.5874     71.79211    62.173791    35.818088   -6440.6347   -308760.93 
    2500    1552.1771    159884.94    71.793272    71.793272    35.818667          120    45034.723    47805.404   -30333.847   -527.36654   -2517.5559     669.4816    71.793272    62.174798    35.818667    20835.427   -308861.98 
    2510    1482.0609    159892.72    71.794436    71.794437    35.819249          120    101683.13    104279.36    35436.529   -872.31041     602.5038   -3879.8677    71.794436    62.175806    35.819249    80466.341   -308713.57 
    2520    1557.4884    159900.53    71.795605    71.795606    35.819832          120    54935.736    57295.271   -19905.113    1152.8333   -3254.6192    372.69304    71.795605    62.176819    35.819832    30775.298   -308866.81 
    2530    1479.9222    159908.36    71.796777    71.796778    35.820416          120    14087.152    18218.495   -68729.345    495.65237   -4131.7978    4012.0846    71.796777    62.177833    35.820416   -12141.233   -308703.51 
    2540     1535.848     159916.2    71.797951    71.797952    35.821002          120    80849.312    83800.348    7397.3535   -1633.2142   -461.25859   -1966.0295    71.797951     62.17885    35.821002    57349.005   -308816.12 
    2550    1508.3213    159924.07    71.799129     71.79913     35.82159          120    92485.781    94489.082    21305.979   -1180.6241   -830.58743   -3348.8664    71.799129     62.17987     35.82159    69426.947   -308755.81 
    2560    1498.0134    159931.97     71.80031    71.800311    35.822179          120    21751.779    26554.868   -61231.317    650.13153     -3705.58    3003.7913     71.80031    62.180893    35.822179   -4308.2232   -308732.06 
    2570    1538.8663    159939.88    71.801494    71.801494     35.82277          120    39860.801    44483.794   -42638.535   -645.49342    -2502.285    1972.6159    71.801494    62.181918     35.82277     13902.02   -308813.59 
    2580    1475.6876    159947.81     71.80268    71.802681    35.823362          120    102521.59    103181.64    30465.075   -2833.1734    27.770915   -3917.1824     71.80268    62.182946    35.823362    78722.767    -308679.4 
    2590    1554.8156    159955.76     71.80387    71.803871    35.823955          120    61591.631    63989.728   -16442.497    -1218.729     -1806.59   -1207.8846     71.80387    62.183976    35.823955     36379.62   -308840.38 
    2600    1475.0106    159963.73    71.805063    71.805064     35.82455          120    13992.167    18893.001   -74834.802    724.64621   -4450.0477    3466.2396    71.805063     62.18501     35.82455   -13983.212   -308671.75 
    2610    1547.6033    159971.72    71.806259    71.806259    35.825147          120    78380.271    78845.848    541.54903   -1975.1056   -1546.9865   -865.30649    71.806259    62.186045    35.825147    52589.223   -308819.16 
    2620    1501.5286    159979.73    71.807457    71.807458    35.825745          120     97615.52    96416.761    25489.914   -3013.6582   -347.45665   -3030.5197    71.807457    62.187083    35.825745    73174.065   -308720.28 
    2630    1520.1606    159987.76    71.808659     71.80866    35.826345          120    28576.153    30752.802   -57548.265    236.76017   -4249.4688     1953.008    71.808659    62.188124    35.826345    593.56345   -308755.73 
    2640    1534.9719    159995.82    71.809864    71.809864    35.826945          120    38122.934    39359.484   -47646.618    481.17636   -4819.6006    2492.3922    71.809864    62.189167    35.826945    9945.2669    -308783.5 
    2650    1489.7599    160003.88    71.811071    71.811071    35.827548          120    103101.52    100147.89     33008.44   -2780.9124   -1446.4848   -1597.5483    71.811071    62.190212    35.827548    78752.619   -308686.43 
    2660     1559.998    160011.98    71.812282    71.812282    35.828152          120    69631.962    68595.264   -5943.1135   -1193.7303   -2642.9572    243.46866    71.812282    62.191261    35.828152    44094.704   -308828.68 
    2670    1474.5453    160020.09    71.813496    71.813496    35.828758          120    17160.353    18362.685   -71285.222    2003.4476   -5466.2719    3772.5129    71.813496    62.192312    35.828758   -11920.728   -308648.97 
    2680    1556.0121    160028.23    71.814712    71.814713    35.829365          120    75320.541    73003.796    1416.2469   -1071.8952   -3517.3102    1147.9317    71.814712    62.193366    35.829365    49913.528    -308814.7 
    2690    1495.2618    160036.38    71.815932    71.815933    35.829973          120    101492.02    98545.577    36796.824   -2097.3292   -2582.9648   -140.57074    71.815932    62.194422    35.829973    78944.806   -308685.07 
    2700    1532.2488    160044.56    71.817156    71.817157    35.830584          120    35542.876    36208.117   -44541.401    1481.1525   -3972.3835    3001.7953    71.817156    62.195482    35.830584    9069.8643   -308758.69 
    2710    1529.5911    160052.76    71.818383    71.818383    35.831196          120    35723.417    34445.567    -45161.23    497.46335   -3706.9753    3377.9257    71.818383    62.196545    35.831196     8335.918   -308749.98 
    2720    1511.0828    160060.98    71.819612    71.819613    35.831809          120    101660.43    97933.993    41051.475   -1990.7136   -3355.8786    826.69382    71.819612    62.197609    35.831809    80215.301   -308707.96 
    2730    1564.2006    160069.23    71.820846    71.820846    35.832425          120    75066.844    75266.323     10976.68   -125.63862   -3808.3294    1489.9409    71.820846    62.198678    35.832425    53769.949   -308814.71 
[...]
    9320    1806.4845    165332.83    72.599606    72.599606    36.220959          120    385.03101    5357.8989     -63739.8    421.71196   -2796.4748    913.04222    72.599606    62.873104    36.220959    -19332.29   -308261.23 
    9330    1810.6302    165338.88    72.600491    72.600492      36.2214          120    59211.129    58429.043    8339.1703    3144.3939   -2156.2086   -1144.4981    72.600491     62.87387      36.2214    41993.114   -308271.28 
    9340    1818.3983    165344.92    72.601376    72.601376    36.221842          120     53549.33    52568.011   -2299.2748    1443.1891   -1465.9489   -1147.8597    72.601376    62.874636    36.221842    34606.022   -308288.95 
    9350    1787.5932    165350.97     72.60226    72.602261    36.222283          120   -3920.0312     869.4232   -70099.879    -1538.842     -3239.04   -17.285904     72.60226    62.875402    36.222283   -24383.496   -308227.04 
    9360    1824.8726       165357    72.603143    72.603144    36.222724          120    26213.489    28505.094   -30971.124    884.33184   -3264.3577   -101.27287    72.603143    62.876167    36.222724    7915.8197   -308305.63 
    9370    1783.5434    165363.03    72.604025    72.604026    36.223164          120     70022.82    67845.835    17649.859    2570.7423   -1217.6633    -1156.337    72.604025    62.876931    36.223164    51839.505   -308220.82 
    9380    1824.2827    165369.05    72.604907    72.604907    36.223604          120    22348.287     24991.01   -39827.655   -569.00728   -2710.6062   -910.57103    72.604907    62.877694    36.223604    2503.8808    -308306.3 
    9390    1796.2567    165375.07    72.605788    72.605788    36.224043          120   -3513.7269    717.25113   -66931.531   -1748.2582   -4555.2328   -230.67839    72.605788    62.878457    36.224043   -23242.669   -308249.13 
    9400    1815.2088    165381.08    72.606667    72.606667    36.224482          120    55487.235     55022.74    768.59491    1263.5126   -1808.4366    96.537231    72.606667    62.879219    36.224482    37092.856   -308289.32 
    9410    1818.6091    165387.08    72.607546    72.607546     36.22492          120    55290.782    56652.703   -1515.6724    1194.9373   -1079.2897   -372.77732    72.607546     62.87998     36.22492    36809.271   -308297.47 
    9420    1800.2012    165393.08    72.608424    72.608424    36.225358          120    -4433.834     703.0211   -67811.361   -1449.0788   -4376.4986   -1011.0004    72.608424     62.88074    36.225358   -23847.391   -308260.67 
    9430     1827.977    165399.07      72.6093    72.609301    36.225796          120    20771.281    22977.766   -38855.954   -548.86906   -3226.5604    399.53389      72.6093    62.881499    36.225796    1631.0313   -308319.89 
    9440    1789.8729    165405.06    72.610176    72.610176    36.226232          120     68327.19    69335.186    13996.082    1502.9579    288.89681     1070.019    72.610176    62.882258    36.226232    50552.819   -308242.49 
    9450    1821.3105    165411.04    72.611051    72.611052    36.226669          120    24042.802    29568.345   -34084.153     883.8931   -1485.1525   -471.46272    72.611051    62.883015    36.226669    6508.9981   -308309.62 
    9460    1781.8659    165417.01    72.611925    72.611926    36.227105          120   -6556.7277   -1590.0072   -68350.746   -872.25045   -3288.4927    -786.4966    72.611925    62.883772    36.227105    -25499.16   -308230.08 
    9470    1798.0731    165422.97    72.612798    72.612798     36.22754          120    51377.631     52911.07   -5036.4933    613.87138    40.479958    1154.9537    72.612798    62.884528     36.22754    33084.069   -308265.64 
    9480    1783.9053    165428.93    72.613669     72.61367    36.227975          120    57174.861    60860.734     3940.119    1792.4416    1897.2648    900.60698    72.613669    62.885283    36.227975    40658.571   -308238.16 
    9490    1766.2488    165434.89    72.614541    72.614541     36.22841          120   -3420.0253    4575.9468   -62322.787     646.2447   -1126.6995   -1110.7179    72.614541    62.886038     36.22841   -20388.955   -308203.91 
    9500    1784.7824    165440.84    72.615411    72.615412    36.228844          120    16421.619    19954.223   -43435.008   -150.64725   -694.10602   -552.16208    72.615411    62.886791    36.228844   -2353.0554   -308244.09 
    9510    1749.2684    165446.78     72.61628    72.616281    36.229278          120    68216.476    68753.858    14649.018    1224.9101    2722.2249    974.12163     72.61628    62.887544    36.229278    50539.784   -308171.72 
    9520    1786.0428    165452.71    72.617149    72.617149    36.229711          120    27693.342    35022.377   -26463.712    1352.7229    1723.6968   -46.974027    72.617149    62.888296    36.229711    12084.002   -308249.15 
    9530    1752.1348    165458.65    72.618017    72.618017    36.230144          120   -8857.0006   -1954.8267   -68895.879   -580.82749   -669.95302   -1036.3563    72.618017    62.889048    36.230144   -26569.235    -308180.1 
    9540    1783.2222    165464.57    72.618883    72.618883    36.230576          120    48162.695    47603.371   -9780.5985    649.22148    1163.7148   -278.21617    72.618883    62.889798    36.230576    28661.823   -308245.29 
    9550    1775.7307    165470.48    72.619749    72.619749    36.231008          120    59711.836     62618.15    7620.8622    1552.4202    2609.5369    90.682685    72.619749    62.890548    36.231008    43316.949    -308230.1 
    9560    1777.8346     165476.4    72.620614    72.620614     36.23144          120    -1826.792     6975.668   -58421.709   -1021.8253    114.68205   -214.09026    72.620614    62.891297     36.23144   -17757.611   -308235.24 
    9570     1801.819     165482.3    72.621478    72.621478    36.231871          120    11931.955    13925.487   -49184.731   -928.20629   -521.17031   -1089.8422    72.621478    62.892045    36.231871   -7775.7627   -308285.37 
    9580    1779.1658     165488.2     72.62234    72.622341    36.232301          120    65748.935    66675.945    11572.538    1825.8228    1178.5344   -1238.5486     72.62234    62.892792    36.232301    47999.139   -308238.63 
    9590     1821.767     165494.1    72.623202    72.623203    36.232732          120    30859.878    38729.838   -21641.163    75.790021    454.75983    -659.0927    72.623202    62.893539    36.232732    15982.851   -308327.58 
    9600    1782.5977    165499.98    72.624064    72.624064    36.233161          120   -9984.7124   -4561.8236   -70767.513     -2556.14   -1298.1733    -903.7311    72.624064    62.894285    36.233161   -28438.016   -308247.38 
    9610    1819.5802    165505.86    72.624923    72.624924     36.23359          120    41505.743    43643.297    -16432.94     536.2247   -132.18882    -1858.016    72.624923    62.895029     36.23359    22905.367   -308325.15 
    9620    1795.3196    165511.73    72.625782    72.625783    36.234019          120    59242.768    66371.972    9000.0886    2019.0102    119.92671   -1776.1343    72.625782    62.895773    36.234019     44871.61   -308276.19 
    9630    1800.1449     165517.6     72.62664    72.626641    36.234447          120    2042.8582     9606.123   -55564.554   -1376.5959   -1531.5357     -1101.51     72.62664    62.896516    36.234447   -14638.524   -308287.66 
    9640    1805.3421    165523.46    72.627497    72.627498    36.234874          120    6778.2822     9775.998   -54624.163   -1716.0971   -658.04035   -1280.5703    72.627497    62.897258    36.234874   -12689.961   -308299.86 
    9650    1781.3647    165529.31    72.628353    72.628353    36.235301          120    60590.267    66742.748    9573.7674    1816.6274    166.46349   -2002.2483    72.628353    62.897999    36.235301    45635.594   -308251.57 
    9660    1812.7817    165535.15    72.629208    72.629208    36.235728          120    34935.284    43889.371   -17275.811    1948.0748   -985.68197   -2046.0965    72.629208    62.898739    36.235728    20516.281   -308318.05 
    9670    1769.6611    165540.99    72.630062    72.630062    36.236154          120   -9551.6644    -5068.333    -72145.52   -1380.9287   -1378.1711     -1132.34    72.630062    62.899479    36.236154   -28921.839      -308230 
    9680    1810.6735    165546.82    72.630914    72.630915    36.236579          120    35234.953    38570.052   -20426.457   -375.56901    569.38776   -1895.7555    72.630914    62.900217    36.236579    17792.849   -308316.11 
    9690    1779.3189    165552.64    72.631766    72.631766    36.237004          120    59733.077    67487.224    11558.044    3473.6789    -64.35987   -2794.3124    72.631766    62.900955    36.237004    46259.448   -308251.69 
    9700    1802.5875    165558.46    72.632617    72.632617    36.237428          120    6592.1649     13337.01   -52993.168     2165.927   -1217.2579   -1736.1185    72.632617    62.901692    36.237428   -11021.331    -308300.8 
    9710    1798.5798    165564.27    72.633466    72.633467    36.237852          120    3109.0884    4892.2325   -58891.523   -1266.8242     403.6479   -1780.0568    72.633466    62.902427    36.237852   -16963.401   -308293.64 
    9720    1792.3879    165570.07    72.634314    72.634315    36.238275          120     58053.64    61828.478    8222.1012    1767.2637    523.25335   -3135.9362    72.634314    62.903162    36.238275    42701.407   -308281.14 
    9730    1818.9929    165575.87    72.635162    72.635162    36.238698          120    40101.727    47305.698   -13624.798    4800.0858   -890.06027   -3317.2755    72.635162    62.903896    36.238698    24594.209   -308337.24 
    9740    1782.9766    165581.66    72.636008    72.636009    36.239121          120   -7712.3588   -4373.1684   -72918.496    1108.0154   -407.30682   -2038.0622    72.636008    62.904629    36.239121   -28334.675   -308263.92 
    9750    1822.5433    165587.44    72.636853    72.636854    36.239542          120    31067.685    31833.173   -24391.252   -345.02973    339.87413   -3082.7519    72.636853    62.905361    36.239542    12836.536   -308346.77 
    9760    1787.8002    165593.21    72.637697    72.637698    36.239963          120     61851.63    67551.882    13800.573    3971.8536   -931.46605   -4267.9223    72.637697    62.906092    36.239963    47734.695   -308275.67 
    9770    1812.8372    165598.98    72.638541    72.638542    36.240384          120    12776.498    18211.127   -48945.711    3750.9684   -1055.1013   -3219.8493    72.638541    62.906822    36.240384   -5986.0289   -308328.61 
    9780    1797.1192    165604.74    72.639383    72.639384    36.240804          120    694.29489    1652.7663   -61494.023   -355.91156   -686.96573    -2888.831    72.639383    62.907552    36.240804   -19715.654   -308297.26 
    9790    1798.7416    165610.49    72.640224    72.640225    36.241224          120     54424.43    58847.067    7671.2501    1661.1795   -1495.8904   -3725.8964    72.640224     62.90828    36.241224    40314.249   -308301.53 
    9800    1812.2238    165616.24    72.641065    72.641065    36.241643          120    44791.625    51080.069    -7123.779    4081.7014   -1613.5656     -3762.41    72.641065    62.909008    36.241643    29582.638   -308330.71 
    9810    1784.8128    165621.98    72.641904    72.641905    36.242062          120   -5556.7361   -2571.4217   -71581.118    403.68907   -736.65892   -2843.1377    72.641904    62.909735    36.242062   -26569.758   -308275.28 
    9820    1819.4069    165627.71    72.642742    72.642743     36.24248          120    24524.451    28335.614   -28752.813    31.670346   -1829.8055   -3255.3792    72.642742    62.910461     36.24248    8035.7504   -308347.62 
    9830    1786.0252    165633.44    72.643579     72.64358    36.242898          120    60764.239    67798.412    17268.899    3395.8753    -2659.197   -2749.1787    72.643579    62.911186    36.242898    48610.517   -308279.23 
    9840    1816.9078    165639.16    72.644416    72.644417    36.243315          120    16843.688    21961.463   -43308.981    990.87499   -685.74424   -2583.5923    72.644416     62.91191    36.243315   -1501.2768   -308344.18 
    9850    1797.8792    165644.88    72.645252    72.645252    36.243732          120   -3016.1213    787.54953   -66115.414    -1674.054   -338.95979    -2686.942    72.645252    62.912634    36.243732   -22781.329   -308305.66 
    9860    1805.8193    165650.58    72.646086    72.646086    36.244148          120    48800.452    56900.126    3879.5947         2536    -3195.348   -2111.4898    72.646086    62.913356    36.244148    36526.724   -308323.04 
    9870    1817.1341    165656.29    72.646919     72.64692    36.244564          120    47008.541     53947.28    -1655.604    2344.9397   -2566.8789   -1875.4177    72.646919    62.914078    36.244564    33100.072   -308347.33 
    9880    1792.1418    165661.98    72.647752    72.647752     36.24498          120   -4408.2777   -903.42527   -69960.029   -3111.8445    538.08581   -1887.2444    72.647752    62.914799     36.24498   -25090.577   -308297.14 
    9890    1822.1265    165667.67    72.648583    72.648584    36.245394          120    19086.721    25731.404    -35494.02    30.569122   -1593.4789   -2336.5535    72.648583    62.915519    36.245394     3108.035   -308360.74 
    9900    1784.7403    165673.35    72.649413    72.649414    36.245808          120    60429.453    68983.495    16682.867    3825.9306   -3689.6335   -1947.1369    72.649413    62.916238    36.245808    48698.605   -308284.56 
    9910    1811.7158    165679.02    72.650243    72.650243    36.246222          120    21239.083    26167.445   -36592.073   -1352.8237   -1300.5408   -1529.9835    72.650243    62.916956    36.246222    3604.8182   -308341.94 
    9920    1780.8526    165684.69    72.651071    72.651072    36.246636          120   -4257.0588   -1043.7768   -67405.019   -3218.3176    376.46355   -1426.0881    72.651071    62.917674    36.246636   -24235.285   -308279.64 
    9930    1792.6766    165690.35    72.651899    72.651899    36.247048          120    47577.099    53987.196    -916.6806    2903.8122   -2383.5279   -2581.8964    72.651899     62.91839    36.247048    33549.205   -308305.14 
    9940    1793.6641    165696.01    72.652725    72.652726    36.247461          120    51605.778    58717.753    2225.1796    2213.3138   -3177.9376   -2165.5187    72.652725    62.919106    36.247461    37516.237   -308308.14 
    9950    1777.3947    165701.66    72.653551    72.653552    36.247873          120   -1877.8951    2187.5745   -65666.045   -3259.6438   -472.88921    117.14888    72.653551    62.919822    36.247873   -21785.455   -308275.35 
    9960    1810.1054     165707.3    72.654376    72.654377    36.248285          120    17376.151    20349.506   -40350.073   -324.29892   -442.65194   -649.56217    72.654376    62.920536    36.248285   -874.80562    -308343.8 
    9970    1777.2482    165712.94      72.6552    72.655201    36.248696          120    62177.443    68085.123    15275.104    3109.9185   -2857.4487   -2730.9398      72.6552     62.92125    36.248696    48512.557   -308276.22 
    9980    1818.6051    165718.57    72.656023    72.656024    36.249106          120    24385.773    32605.167   -31198.045   -593.95965   -2567.0226   -676.12169    72.656023    62.921963    36.249106    8597.6318   -308362.79 
    9990    1785.2103     165724.2    72.656846    72.656846    36.249517          120   -6253.1727   -1613.3003   -69827.291   -2408.4603   -400.77227    2164.0202    72.656846    62.922675    36.249517   -25897.921   -308294.65 
   10000    1810.3483    165729.82    72.657667    72.657667    36.249926          120    45448.528    48201.718   -5690.8817    823.56798   -1383.0683   -669.48358    72.657667    62.923386    36.249926    29319.788   -308347.66 
Loop time of 2972.58 on 1 procs for 10000 steps with 15232 atoms

Performance: 0.029 ns/day, 825.718 hours/ns, 3.364 timesteps/s
100.0% CPU use with 1 MPI tasks x no OpenMP threads

MPI task timing breakdown:
Section |  min time  |  avg time  |  max time  |%varavg| %total
---------------------------------------------------------------
Pair    | 2573.7     | 2573.7     | 2573.7     |   0.0 | 86.58
Bond    | 0.17126    | 0.17126    | 0.17126    |   0.0 |  0.01
Kspace  | 107.91     | 107.91     | 107.91     |   0.0 |  3.63
Neigh   | 225.6      | 225.6      | 225.6      |   0.0 |  7.59
Comm    | 3.0551     | 3.0551     | 3.0551     |   0.0 |  0.10
Output  | 0.10688    | 0.10688    | 0.10688    |   0.0 |  0.00
Modify  | 61.12      | 61.12      | 61.12      |   0.0 |  2.06
Other   |            | 0.8714     |            |       |  0.03

Nlocal:    15232 ave 15232 max 15232 min
Histogram: 1 0 0 0 0 0 0 0 0 0
Nghost:    47554 ave 47554 max 47554 min
Histogram: 1 0 0 0 0 0 0 0 0 0
Neighs:    1.04572e+07 ave 1.04572e+07 max 1.04572e+07 min
Histogram: 1 0 0 0 0 0 0 0 0 0

Total # of neighbors = 10457200
Ave neighs/atom = 686.528
Ave special neighs/atom = 0.0504202
Neighbor list builds = 770
Dangerous builds = 0
thermo		0
reset_timestep	0
fix		2 all ave/time 1 1 500 c_thermo_temp c_thermo_pe c_thermo_press v_myVol v_myCella v_myCellb v_myCellc v_myCellgamma file data/current_run/cp_rawTemp${probeTemp}.dat # Potential energy, parameters, volume
fix		2 all ave/time 1 1 500 c_thermo_temp c_thermo_pe c_thermo_press v_myVol v_myCella v_myCellb v_myCellc v_myCellgamma file data/current_run/cp_rawTemp1800.dat 
run 		100000
PPPM initialization ...
  using 12-bit tables for long-range coulomb (../kspace.cpp:321)
  G vector (1/distance) = 0.202352
  grid = 36 50 24
  stencil order = 5
  estimated absolute RMS force accuracy = 0.0010033
  estimated relative force accuracy = 6.96753e-05
  using double precision FFTs
  3d grid and FFT values/proc = 65395 43200
Per MPI rank memory allocation (min/avg/max) = 163 | 163 | 163 Mbytes
Step Temp Volume Cella Cellb Cellc CellGamma Pxx Pyy Pzz Pxy Pxz Pyz Lx Ly Lz Press PotEng 
       0    1810.3483    165729.82    72.657667    72.657667    36.249926          120    45442.979    48194.838   -5691.8119    823.33277   -1382.9978   -669.52722    72.657667    62.923386    36.249926    29315.335   -308347.74 
  100000    1802.0531    169318.63    73.178383    73.178384    36.509719          120    16822.933    20520.743    -37124.87    305.71408    2878.1494    5011.3538    73.178383    63.374339    36.509719    72.935284   -308412.77 
Loop time of 27497.3 on 1 procs for 100000 steps with 15232 atoms

Performance: 0.031 ns/day, 763.813 hours/ns, 3.637 timesteps/s
100.0% CPU use with 1 MPI tasks x no OpenMP threads

MPI task timing breakdown:
Section |  min time  |  avg time  |  max time  |%varavg| %total
---------------------------------------------------------------
Pair    | 23459      | 23459      | 23459      |   0.0 | 85.31
Bond    | 1.6783     | 1.6783     | 1.6783     |   0.0 |  0.01
Kspace  | 1086.5     | 1086.5     | 1086.5     |   0.0 |  3.95
Neigh   | 2301.5     | 2301.5     | 2301.5     |   0.0 |  8.37
Comm    | 30.127     | 30.127     | 30.127     |   0.0 |  0.11
Output  | 0.00010204 | 0.00010204 | 0.00010204 |   0.0 |  0.00
Modify  | 609.97     | 609.97     | 609.97     |   0.0 |  2.22
Other   |            | 8.606      |            |       |  0.03

Nlocal:    15232 ave 15232 max 15232 min
Histogram: 1 0 0 0 0 0 0 0 0 0
Nghost:    47208 ave 47208 max 47208 min
Histogram: 1 0 0 0 0 0 0 0 0 0
Neighs:    1.02341e+07 ave 1.02341e+07 max 1.02341e+07 min
Histogram: 1 0 0 0 0 0 0 0 0 0

Total # of neighbors = 10234101
Ave neighs/atom = 671.882
Ave special neighs/atom = 0.0504202
Neighbor list builds = 7939
Dangerous builds = 0
unfix		2
variable	probeTemp delete

print		" "
 
print		"All done!"
All done!
Total wall time: 8:30:22
