LAMMPS (16 Mar 2018)
# Find minimum energy for Beryl

#----- Initialize Simulation -----
clear
units 		metal
boundary 	p p p
atom_style 	full
bond_style	none
variable	etol equal 1e-25
variable 	ftol equal 1e-25
variable 	maxiter equal 5000
variable 	maxeval equal 10000

#----- Create Atoms -----
read_data 	beryl_water_100.mod
  triclinic box = (0 0 0) to (9.208 7.97436 18.376) with tilt (-4.604 0 0)
  1 by 1 by 1 MPI processor grid
  reading atoms ...
  128 atoms
  scanning bonds ...
  2 = max bonds/atom
  scanning angles ...
  1 = max angles/atom
  reading bonds ...
  8 bonds
  reading angles ...
  4 angles
  2 = max # of 1-2 neighbors
  1 = max # of 1-3 neighbors
  1 = max # of 1-4 neighbors
  2 = max # of special neighbors
replicate 	1  1  1
  triclinic box = (0 0 0) to (9.208 7.97436 18.376) with tilt (-4.604 0 0)
  1 by 1 by 1 MPI processor grid
  128 atoms
  8 bonds
  4 angles
  2 = max # of 1-2 neighbors
  1 = max # of 1-3 neighbors
  1 = max # of 1-4 neighbors
  2 = max # of special neighbors
  Time spent = 9.41753e-05 secs

#----- Define Interatomic Potential -----
include		potential_main.mod
kspace_style 	pppm 1.0e-4

# Neighbor Style
neighbor	0.3 bin
neigh_modify	delay 0 every 1 check yes

# Minimization style
min_style	cg

# Setup Output
thermo		10
thermo_style	custom	step temp vol cella cellb cellc cellgamma pxx pyy pzz pxy pxz pyz lx ly lz press pe #c_eatoms
thermo_modify	norm no
variable 	myVol equal vol
variable	myCella equal cella
variable	myCellb equal cellb
variable	myCellc equal cellc
variable	myCellgamma equal cellgamma
include 	potential_beryl.mod
# Potential Paramters
pair_style 	hybrid/overlay morse 5.5 buck 5.5 lj/cut/coul/long 5.5 15.0
pair_coeff    1    1 morse     		  0 	       0           0  # Be Be
pair_coeff    1    1 buck                 0            1           -201.0
pair_coeff    1    1 lj/cut/coul/long	  10120.	0.413
pair_coeff    1    2 morse     		  0 	       0           0  # Be Al
pair_coeff    1    2 buck                 0            1           0
pair_coeff    1    2 lj/cut/coul/long	  0	       0
pair_coeff    1    3 morse     		  0 	       0           0  # Al Si
pair_coeff    1    3 buck                 0            1           0
pair_coeff    1    3 lj/cut/coul/long	  0	       0
pair_coeff    1    4 morse 		  0.239919     2.527420    1.815405	#Be O
pair_coeff    1    4 buck                 0.000000     1.000000   -46.00000
pair_coeff    1    4 lj/cut/coul/long     529.000      0.528
pair_coeff    2    2 morse     		  0 	       0           0  # Al Al
pair_coeff    2    2 buck                 0            1           -492.
pair_coeff    2    2 lj/cut/coul/long	  60423		0.356
pair_coeff    2    3 morse     		  0 	       0           0  # Al si
pair_coeff    2    3 buck                 0            1           0
pair_coeff    2    3 lj/cut/coul/long	  0	       0
pair_coeff    2    4 morse 		  0.361581     1.900442    2.164818	#Al O
pair_coeff    2    4 buck                 0.000000     1.000000   -71.5
pair_coeff    2    4 lj/cut/coul/long     1420.0	0.482
pair_coeff    3    3 morse     		  0 	       0           0  # Si Si
pair_coeff    3    3 buck                 0            1           -282.
pair_coeff    3    3 lj/cut/coul/long	  19730		0.391
pair_coeff    3    4 morse 		  0.340554     2.006700    2.100000	#Si O
pair_coeff    3    4 buck                 0.000000     1.000000   -60.5
pair_coeff    3    4 lj/cut/coul/long     916.		0.504
pair_coeff    4    4 morse     		  0.042395     1.379316    3.618701  # O O
pair_coeff    4    4 buck                 0.000000     1.000000   -16.7
pair_coeff    4    4 lj/cut/coul/long	  3.16		1.05
include 	potential_water.mod
# Potential Paramters

pair_coeff    1    6 morse     		  0. 	       0.           0.  		# Ow Be
pair_coeff    1    6 buck                 0            1           -354.5
pair_coeff    1    6 lj/cut/coul/long	  39.637	1.1435
pair_coeff    2    6 morse     		  0 	       0           0  		# Ow Al
pair_coeff    2    6 buck                 0            1           -554.6
pair_coeff    2    6 lj/cut/coul/long	  96.854	1.0616
pair_coeff    3    6 morse     		  0 	       0           0  		# Ow Si
pair_coeff    3    6 buck                 0            1           -419.9
pair_coeff    3    6 lj/cut/coul/long	  55.345	1.1126
pair_coeff    4    6 morse     		  0 	       0           0  		# Ow O
pair_coeff    4    6 buck                 0            1           -102.9
pair_coeff    4    6 lj/cut/coul/long	  0.70042	1.8233
pair_coeff    5    6 morse     		  0 	       0           0  # Hw Hw
pair_coeff    5    6 buck                 0            1           0
pair_coeff    5    6 lj/cut/coul/long	  0.000	      0.0
pair_coeff    6    6 morse     		  0 	       0           0  		# Ow Ow
pair_coeff    6    6 buck                 0            1           -625.4
pair_coeff    6    6 lj/cut/coul/long	  0.15525	3.166
pair_coeff    1    5 morse     		  0 	       0           0  # Hw Hw
pair_coeff    1    5 buck                 0            1           0
pair_coeff    1    5 lj/cut/coul/long	  0.000	      0.0
pair_coeff    2    5 morse     		  0 	       0           0  # Hw Hw
pair_coeff    2    5 buck                 0            1           0
pair_coeff    2    5 lj/cut/coul/long	  0.000	      0.0
pair_coeff    3    5 morse     		  0 	       0           0  # Hw Hw
pair_coeff    3    5 buck                 0            1           0
pair_coeff    3    5 lj/cut/coul/long	  0.000	      0.0
pair_coeff    4    5 morse     		  0 	       0           0  # Hw Hw
pair_coeff    4    5 buck                 0            1           0
pair_coeff    4    5 lj/cut/coul/long	  0.000	      0.0
pair_coeff    5    5 morse     		  0 	       0           0  # Hw Hw
pair_coeff    5    5 buck                 0            1           0
pair_coeff    5    5 lj/cut/coul/long	  0.000	      0.0



bond_style	harmonic
angle_style	harmonic
dihedral_style	none
improper_style	none

bond_coeff	1 1000.00 1.000
angle_coeff	1 100.0 109.47



#------ Define Settings -----

# ----- Run Minimization -----

fix BRX all box/relax iso 1.013

dump MIN all custom 1 min.lammpstrj id type element x y z ix iy iz

minimize	1e-6 1e-6 5000 10000 # Performs actual minimization
PPPM initialization ...
WARNING: System is not charge neutral, net charge = -0.0032 (../kspace.cpp:302)
  using 12-bit tables for long-range coulomb (../kspace.cpp:321)
  G vector (1/distance) = 0.20816
  grid = 6 10 10
  stencil order = 5
  estimated absolute RMS force accuracy = 0.000561113
  estimated relative force accuracy = 3.89671e-05
  using double precision FFTs
  3d grid and FFT values/proc = 2475 600
Neighbor list info ...
  update every 1 steps, delay 0 steps, check yes
  max neighbors/atom: 2000, page size: 100000
  master list distance cutoff = 15.3
  ghost atom cutoff = 15.3
  binsize = 7.65, bins = 2 2 3
  3 neighbor lists, perpetual/occasional/extra = 3 0 0
  (1) pair morse, perpetual
      attributes: half, newton on
      pair build: half/bin/newton/tri
      stencil: half/bin/3d/newton/tri
      bin: standard
  (2) pair buck, perpetual, copy from (1)
      attributes: half, newton on
      pair build: copy
      stencil: none
      bin: none
  (3) pair lj/cut/coul/long, perpetual, copy from (1)
      attributes: half, newton on
      pair build: copy
      stencil: none
      bin: none
Per MPI rank memory allocation (min/avg/max) = 10.48 | 10.48 | 10.48 Mbytes
Step Temp Volume Cella Cellb Cellc CellGamma Pxx Pyy Pzz Pxy Pxz Pyz Lx Ly Lz Press PotEng 
       0            0    1349.3116        9.208    9.2080001       18.376          120   -204066.46    -202701.5   -274823.33    21.640819    563.65393   -195.50241        9.208     7.974362       18.376    -227197.1   -2412.7728 
      10            0    1345.2677     9.198792    9.1987921    18.357624          120   -192105.32   -194689.96    -263579.6    2314.3001    5700.3666   -2238.1374     9.198792    7.9663876    18.357624   -216791.63   -2413.6195 
      20            0    1341.2319     9.189584    9.1895841    18.339248          120   -179016.12   -185542.05   -251977.24    4599.3179    10828.162   -4273.3815     9.189584    7.9584133    18.339248    -205511.8   -2414.1475 
      30            0    1337.2041     9.180376    9.1803761    18.320872          120   -165970.41   -176435.11   -240538.33    6876.6957    15944.218   -6298.7299     9.180376    7.9504389    18.320872   -194314.62   -2414.6793 
      40            0    1333.1845     9.171168    9.1711681    18.302496          120   -152795.74   -167194.18   -228938.34    9143.3959    21046.091   -8313.7501     9.171168    7.9424646    18.302496   -182976.09   -2415.1567 
      50            0    1329.1729      9.16196    9.1619601     18.28412          120   -139560.34   -157879.56   -217220.57    11397.132    26128.991    -10314.86      9.16196    7.9344902     18.28412   -171553.49   -2415.5992 
      60            0    1325.1694     9.152752    9.1527521    18.265744          120   -126414.65   -148636.76   -205873.63    13635.847    31186.871   -12300.271     9.152752    7.9265158    18.265744   -160308.35   -2416.0568 
      70            0    1321.1739     9.143544    9.1435441    18.247368          120   -113159.05   -139269.69   -194182.27    15851.881    36213.202   -14265.589     9.143544    7.9185415    18.247368   -148870.34   -2416.4524 
      80            0    1317.1865     9.134336    9.1343361    18.228992          120   -99906.147   -129881.25   -182458.07    18044.724    41201.202    -16207.04     9.134336    7.9105671    18.228992   -137415.16   -2416.8202 
      90            0     1313.207     9.125128    9.1251281    18.210616          120   -86627.511   -120435.36   -170670.03    20207.617    46138.419   -18119.409     9.125128    7.9025927    18.210616   -125910.97   -2417.1579 
     100            0    1309.2357      9.11592    9.1159201     18.19224          120   -73594.117   -111193.88   -158926.07    22335.509     51014.24   -19995.621      9.11592    7.8946184     18.19224   -114571.36   -2417.5044 
     110            0    1305.2723     9.106712    9.1067121    18.173864          120   -60387.068   -101731.51    -147298.1    24415.045    55811.035   -21827.474     9.106712     7.886644    18.173864   -103138.89    -2417.796 
     120            0    1301.3169     9.097504    9.0975041    18.155488          120   -47291.806   -92314.659   -135734.63    26435.774    60506.255   -23603.364     9.097504    7.8786697    18.155488   -91780.366   -2418.0669 
     130            0    1297.3695     9.088296    9.0882961    18.137112          120   -34299.139   -82916.317   -124282.08     28383.68    65069.988   -25307.668     9.088296    7.8706953    18.137112   -80499.179   -2418.3153 
     140            0    1293.4302     9.079088    9.0790881    18.118736          120   -21525.316   -73622.457   -112946.22     30233.66    69461.109   -26918.435     9.079088    7.8627209    18.118736   -69364.663   -2418.5442 
     150            0    1289.4988      9.06988    9.0698801     18.10036          120   -9057.1354   -64479.712   -101930.86    31953.479    73619.318   -28402.451      9.06988    7.8547466     18.10036   -58489.236   -2418.7638 
     160            0    1285.5753     9.060672    9.0606721    18.081984          120    2948.1975   -55587.945   -91370.486    33492.583    77454.301    -29712.76     9.060672    7.8467722    18.081984   -48003.411   -2418.9777 
     170            0    1281.6599     9.051464    9.0514641    18.063608          120    14313.907   -47031.297   -81401.884    34774.986    80831.102   -30779.317     9.051464    7.8387978    18.063608   -38039.758   -2419.1906 
     180            0    1277.7524     9.042256    9.0422561    18.045232          120    24588.794   -39107.326   -72323.577    35680.464    83524.656   -31482.749     9.042256    7.8308235    18.045232    -28947.37   -2419.4216 
     190            0    1273.8528     9.033048    9.0330481    18.026856          120    33250.111   -32122.384    -64726.06    36020.627    85200.525   -31644.567     9.033048    7.8228491    18.026856   -21199.444   -2419.6888 
     200            0    1269.9612      9.02384    9.0238401     18.00848          120    39565.791    -26519.35   -59327.641    35559.684    85429.693   -31040.696      9.02384    7.8148748     18.00848   -15427.067   -2420.0227 
     210            0    1266.0776     9.014632    9.0146321    17.990104          120    43177.799   -22488.078    -56288.57    34158.633    83962.552   -29540.121     9.014632    7.8069004    17.990104   -11866.283   -2420.4181 
     220            0    1262.2018     9.005424    9.0054241    17.971728          120    44657.814   -19704.981   -55087.386    32032.385    81176.725   -27350.034     9.005424     7.798926    17.971728   -10044.851   -2420.8539 
     230            0     1258.334     8.996216    8.9962161    17.953352          120    45181.911   -17415.782   -54692.846    29553.008    77727.498   -24829.251     8.996216    7.7909517    17.953352   -8975.5726   -2421.2838 
     240            0    1254.4741     8.987008    8.9870081    17.934976          120    45365.939   -15280.815   -54603.446    26957.697    74028.969   -22208.299     8.987008    7.7829773    17.934976   -8172.7741   -2421.6965 
     250            0    1250.6221       8.9778    8.9778001      17.9166          120    45382.902   -13213.256    -54513.71    24339.883    70234.274   -19579.593       8.9778     7.775003      17.9166   -7448.0211   -2422.0966 
     260            0    1246.7779     8.968592    8.9685921    17.898224          120    45659.431   -11065.175   -55667.438    21932.214     66752.74   -17167.571     8.968592    7.7670286    17.898224    -7024.394   -2422.7368 
     270            0    1242.9417     8.959384    8.9593841    17.879848          120    45938.512   -8572.4399    -55428.48    19351.463    62850.263   -14604.394     8.959384    7.7590542    17.879848   -6020.8028    -2423.059 
     280            0    1239.1133     8.950176    8.9501761    17.861472          120    45853.283   -6144.0189   -55460.534    16668.034    58614.236   -11967.286     8.950176    7.7510799    17.861472    -5250.423   -2423.3581 
     290            0    1235.2929     8.940968    8.9409681    17.843096          120    45641.193   -3621.2889   -55523.682     13990.03    54192.133   -9364.2649     8.940968    7.7431055    17.843096   -4501.2595    -2423.633 
     300            0    1231.4802      8.93176    8.9317601     17.82472          120    45281.887   -971.33242   -55682.352    11345.208    49557.213    -6829.235      8.93176    7.7351311     17.82472    -3790.599   -2423.8892 
     310            0    1227.6754     8.922552    8.9225521    17.806344          120    44721.554    1875.9325   -55773.885    8735.8219    44603.856   -4377.5136     8.922552    7.7271568    17.806344   -3058.7997    -2424.119 
     320            0    1223.8785     8.913344    8.9133441    17.787968          120    43932.441    5019.4982   -55985.202    6214.3614     39263.19   -2083.7693     8.913344    7.7191824    17.787968   -2344.4207   -2424.3339 
     330            0    1220.0894     8.904136    8.9041361    17.769592          120    42717.837    8528.8181   -56235.468    3842.7301    33315.987     -37.0607     8.904136    7.7112081    17.769592   -1662.9374   -2424.5431 
     340            0    1216.3082     8.894928    8.8949281    17.751216          120     40801.92    12565.494   -56481.077    1804.8937    26605.797    1520.0171     8.894928    7.7032337    17.751216   -1037.8881   -2424.7909 
     350            0    1212.5347      8.88572    8.8857201     17.73284          120    37612.526    17703.132   -56990.895    307.68453    18174.317    2233.5801      8.88572    7.6952593     17.73284   -558.41226   -2425.0759 
     360            0    1209.5216    8.8783536    8.8783537    17.718139          120    461.98846     12700.63   -80567.785   -5188.3962   -14206.959    4639.8015    8.8783536    7.6888798    17.718139   -22468.389   -2425.8112 
     370            0    1205.7622    8.8691456    8.8691457    17.699763          120    19410.397    26433.479    -63474.82   -2068.5686   -7386.0123    1843.7577    8.8691456    7.6809055    17.699763   -5876.9812    -2425.856 
     380            0    1205.0112     8.867304    8.8673041    17.696088          120    29293.873    31574.107   -53130.018    484.36533   -1541.5113   -398.36154     8.867304    7.6793106    17.696088    2579.3206   -2426.0081 
     390            0    1206.5134    8.8709872    8.8709873    17.703438          120    24845.746    23459.342    -51048.48    147.06335    740.10507    318.92055    8.8709872    7.6825004    17.703438   -914.46376   -2426.5703 
     400            0    1205.7622    8.8691456    8.8691457    17.699763          120    26079.744    24015.688   -47107.491    406.19614    1287.9165    102.90854    8.8691456    7.6809055    17.699763    995.98019    -2426.795 
     410            0    1205.7622    8.8691456    8.8691457    17.699763          120    25259.973    23220.953   -46579.228    342.33619    1118.5334    161.60452    8.8691456    7.6809055    17.699763    633.89931    -2426.894 
     420            0    1205.7622    8.8691456    8.8691457    17.699763          120    24274.044    22253.583   -45917.673    262.90494    922.16889    238.23691    8.8691456    7.6809055    17.699763    203.31807   -2427.0132 
     430            0    1205.7622    8.8691456    8.8691457    17.699763          120    22270.738    20260.357   -44444.947    100.06927    551.38799    395.82194    8.8691456    7.6809055    17.699763   -637.95066   -2427.2573 
     440            0    1205.7622    8.8691456    8.8691457    17.699763          120    21574.548    19560.077   -43868.944    45.372416    433.71655    447.27483    8.8691456    7.6809055    17.699763    -911.4394   -2427.3447 
     450            0    1205.7622    8.8691456    8.8691457    17.699763          120    20853.902    18831.703   -43241.488   -5.9791027    319.52997    501.02667    8.8691456    7.6809055    17.699763   -1185.2945   -2427.4359 
     460            0    1205.7622    8.8691456    8.8691457    17.699763          120    19541.151    17484.745   -42034.104    -100.2034     119.8091    595.77279    8.8691456    7.6809055    17.699763   -1669.4029    -2427.604 
     470            0    1205.0112     8.867304    8.8673041    17.696088          120    21858.974    18773.917   -37296.128     398.1371    1222.4415    156.09743     8.867304    7.6793106    17.696088    1112.2543   -2427.7803 
     480            0    1205.0112     8.867304    8.8673041    17.696088          120    21287.885    18180.362   -36677.669    365.12525    1147.3631     193.4703     8.867304    7.6793106    17.696088    930.19248   -2427.8559 
     490            0    1205.0112     8.867304    8.8673041    17.696088          120    20777.647    17649.268   -36099.117    335.18205    1082.9603    226.26751     8.867304    7.6793106    17.696088    775.93268   -2427.9244 
     500            0    1205.0112     8.867304    8.8673041    17.696088          120    20277.637    17132.487   -35512.508    305.67345    1022.1012    256.55396     8.867304    7.6793106    17.696088    632.53852   -2427.9919 
     510            0    1205.0112     8.867304    8.8673041    17.696088          120    19755.382    16592.608   -34878.251    278.98656    962.54876    286.09667     8.867304    7.6793106    17.696088    489.91308   -2428.0629 
     520            0    1205.0112     8.867304    8.8673041    17.696088          120    19171.758    15982.544   -34128.608    251.45418    898.34308    315.41137     8.867304    7.6793106    17.696088    341.89817   -2428.1439 
     530            0    1205.0112     8.867304    8.8673041    17.696088          120    18386.101    15156.834   -33059.928    216.35464    819.87056    354.67025     8.867304    7.6793106    17.696088     161.0023   -2428.2551 
     540            0    1205.0112     8.867304    8.8673041    17.696088          120    16596.917    13249.446   -30350.518    145.55828    674.91576    430.44563     8.867304    7.6793106    17.696088   -168.05165   -2428.5169 
     550            0    1205.0112     8.867304    8.8673041    17.696088          120    15836.995    12426.778   -29045.501    123.35202    631.18955    454.33749     8.867304    7.6793106    17.696088   -260.57616   -2428.6343 
     560            0    1205.0112     8.867304    8.8673041    17.696088          120    15286.344    11826.776   -28021.115    113.22572    606.97273    468.65172     8.867304    7.6793106    17.696088   -302.66467   -2428.7224 
     570            0    1205.0112     8.867304    8.8673041    17.696088          120    14815.862     11301.23   -27082.792    107.27466    591.64668    477.85683     8.867304    7.6793106    17.696088   -321.90001   -2428.8006 
     580            0    1205.0112     8.867304    8.8673041    17.696088          120    14380.317    10817.621   -26171.545    103.40545    584.08115    483.64259     8.867304    7.6793106    17.696088   -324.53541   -2428.8742 
     590            0    1205.0112     8.867304    8.8673041    17.696088          120    13967.924    10350.364   -25251.864    104.08003    582.85948    486.60822     8.867304    7.6793106    17.696088   -311.19191   -2428.9465 
     600            0    1205.0112     8.867304    8.8673041    17.696088          120    13555.211    9881.2404   -24298.772    111.21108    583.70722    487.47403     8.867304    7.6793106    17.696088   -287.44037   -2429.0198 
     610            0    1205.0112     8.867304    8.8673041    17.696088          120    13138.281    9403.6995   -23246.571    118.84817    595.82468    483.91369     8.867304    7.6793106    17.696088   -234.86357   -2429.0971 
     620            0    1205.0112     8.867304    8.8673041    17.696088          120    12648.993    8833.9821   -21912.165    133.06141    621.73075    473.53324     8.867304    7.6793106    17.696088   -143.06322   -2429.1923 
     628            0    1205.0112     8.867304    8.8673041    17.696088          120    11452.655    7396.0353   -18181.206    189.91056    729.14103    430.29309     8.867304    7.6793106    17.696088    222.49483   -2429.4407 
Loop time of 2.39794 on 1 procs for 628 steps with 128 atoms

100.1% CPU use with 1 MPI tasks x no OpenMP threads

Minimization stats:
  Stopping criterion = energy tolerance
  Energy initial, next-to-last, final = 
        -2412.77276117     -2429.43870739      -2429.4407816
  Force two-norm initial, final = 574.232 7.33674
  Force max component initial, final = 574.021 1.01979
  Final line search alpha, max atom move = 2.32039e-05 2.3663e-05
  Iterations, force evaluations = 628 628

MPI task timing breakdown:
Section |  min time  |  avg time  |  max time  |%varavg| %total
---------------------------------------------------------------
Pair    | 2.0522     | 2.0522     | 2.0522     |   0.0 | 85.58
Bond    | 0.00042677 | 0.00042677 | 0.00042677 |   0.0 |  0.02
Kspace  | 0.092569   | 0.092569   | 0.092569   |   0.0 |  3.86
Neigh   | 0.015624   | 0.015624   | 0.015624   |   0.0 |  0.65
Comm    | 0.015807   | 0.015807   | 0.015807   |   0.0 |  0.66
Output  | 0.075441   | 0.075441   | 0.075441   |   0.0 |  3.15
Modify  | 0          | 0          | 0          |   0.0 |  0.00
Other   |            | 0.1459     |            |       |  6.08

Nlocal:    128 ave 128 max 128 min
Histogram: 1 0 0 0 0 0 0 0 0 0
Nghost:    8422 ave 8422 max 8422 min
Histogram: 1 0 0 0 0 0 0 0 0 0
Neighs:    101626 ave 101626 max 101626 min
Histogram: 1 0 0 0 0 0 0 0 0 0

Total # of neighbors = 101626
Ave neighs/atom = 793.953
Ave special neighs/atom = 0.1875
Neighbor list builds = 6
Dangerous builds = 0
undump MIN

reset_timestep	0
timestep 0.0001

velocity        all create 300.0 87287 loop geom
fix		1 all npt temp 300.0 30.0 .1 iso 1.013 1.013 1.0

dump TRJ all custom 1 dump.lammpstrj id type element x y z ix iy iz
dump_modify TRJ sort 1 element Be Al Si O H O

run 		10000
PPPM initialization ...
  using 12-bit tables for long-range coulomb (../kspace.cpp:321)
  G vector (1/distance) = 0.212303
  grid = 8 10 10
  stencil order = 5
  estimated absolute RMS force accuracy = 0.000398915
  estimated relative force accuracy = 2.77031e-05
  using double precision FFTs
  3d grid and FFT values/proc = 2925 800
Per MPI rank memory allocation (min/avg/max) = 10.57 | 10.57 | 10.57 Mbytes
Step Temp Volume Cella Cellb Cellc CellGamma Pxx Pyy Pzz Pxy Pxz Pyz Lx Ly Lz Press PotEng 
       0          300    1205.0112     8.867304    8.8673041    17.696088          120    15271.146    12234.211   -13682.565   -204.75796     270.0952    231.15649     8.867304    7.6793106    17.696088    4607.5973   -2429.4384 
      10     293.8728    1205.0104    8.8673018    8.8673019    17.696084          120    25047.843    17047.645    7879.4439   -1939.6018    12488.703   -8489.8785    8.8673018    7.6793087    17.696084    16658.311   -2429.3321 
      20    292.41198    1205.0145     8.867312     8.867312    17.696104          120    9280.2209    9313.6247   -19402.372    2023.2448   -6293.7867      1204.79     8.867312    7.6793175    17.696104   -269.50871   -2429.3119 
      30    276.28431    1205.0222    8.8673309    8.8673309    17.696142          120    8367.4881    5173.9756   -26555.423    5319.7381   -9731.9063    6620.8485    8.8673309    7.6793339    17.696142   -4337.9865   -2429.0435 
      40    260.98087    1205.0336    8.8673589    8.8673589    17.696197          120    25083.846    14859.067    8119.5991     2789.864    10066.673   -6379.6927    8.8673589    7.6793581    17.696197    16020.838   -2428.7938 
      50    244.29289    1205.0514    8.8674026    8.8674026    17.696285          120    18332.068    15007.884    7273.4615    777.86703    4577.3197   -9998.1947    8.8674026     7.679396    17.696285    13537.805   -2428.5194 
      60    226.54021     1205.076    8.8674628    8.8674628    17.696405          120      6144.26     2605.851   -19179.741    4873.3275   -11320.202    3006.3358    8.8674628    7.6794481    17.696405   -3476.5432   -2428.2236 
      70     218.2781    1205.1063    8.8675371    8.8675372    17.696553          120    18201.461    7436.7868   -451.22364    8521.0762    297.44147    1494.7482    8.8675371    7.6795125    17.696553    8395.6746   -2428.0896 
      80    208.28195    1205.1444    8.8676305    8.8676306     17.69674          120    24343.752    18223.457    25282.825    3914.1676    9991.1504   -12640.237    8.8676305    7.6795934     17.69674    22616.678   -2427.9194 
      90    213.13293    1205.1922    8.8677478    8.8677479    17.696974          120    10868.411    5364.4598    6503.4704     306.2253   -3260.5052   -8356.8635    8.8677478     7.679695    17.696974    7578.7805        -2428 
     100    213.94759     1205.249     8.867887    8.8678871    17.697252          120    8883.8716   -1822.5771   -2445.8766    7304.4453    -7123.297    3040.8934     8.867887    7.6798155    17.697252    1538.4726   -2428.0065 
     110    227.33837    1205.3148    8.8680486    8.8680486    17.697574          120    20307.151    15196.592    28236.012      10143.6    6158.0323     -5700.74    8.8680486    7.6799554    17.697574    21246.585   -2428.2286 
     120    237.17609    1205.3923    8.8682385    8.8682386    17.697953          120    17321.474    11346.952    35525.478    341.98692    6247.6163   -14942.441    8.8682385    7.6801199    17.697953    21397.968   -2428.3863 
     130    248.19398     1205.482    8.8684585    8.8684586    17.698392          120    6238.9378   -6982.7908    12462.984   -420.41914   -5210.2174   -5776.4739    8.8684585    7.6803104    17.698392     3906.377   -2428.5626 
     140    259.74043     1205.583    8.8687062    8.8687063    17.698886          120    9777.3259    5882.6123    23579.942    10548.286   -1273.6752   -109.08312    8.8687062     7.680525    17.698886     13079.96   -2428.7521 
     150    263.25107    1205.6969    8.8689856    8.8689857    17.699444          120    17149.946     16791.03    54370.679    6862.4193    9295.4398   -10002.522    8.8689856    7.6807669    17.699444    29437.219   -2428.8056 
     160    267.77412    1205.8262    8.8693025    8.8693026    17.700076          120    10594.528   -3254.2715    41829.096   -4290.7527    2967.0038   -14692.812    8.8693025    7.6810414    17.700076    16389.784   -2428.8797 
     170    264.46119    1205.9705    8.8696563    8.8696563    17.700782          120    4226.5318   -5185.2957    25116.559    2705.0006   -3662.5411   -5228.3672    8.8696563    7.6813477    17.700782    8052.5984   -2428.8209 
     180    261.07937    1206.1298    8.8700469     8.870047    17.701562          120    9694.3908    15464.896    58318.918    11068.001    5781.9092   -1588.5707    8.8700469    7.6816861    17.701562    27826.068   -2428.7641 
     190    255.01628    1206.3072    8.8704816    8.8704817    17.702429          120    12664.231    7661.9785    73494.644    1095.5217    9048.2059   -12269.862    8.8704816    7.6820625    17.702429    31273.618   -2428.6629 
     200    248.02324     1206.504    8.8709639     8.870964    17.703392          120    6650.1967   -9582.0018    42633.977   -3748.5882    889.02209   -15520.792    8.8709639    7.6824802    17.703392    13234.057   -2428.5453 
     210    244.47468    1206.7193    8.8714917    8.8714918    17.704445          120    3769.8795    4414.5732    53257.328    7083.5158     2501.291   -2876.7886    8.8714917    7.6829373    17.704445    20480.593   -2428.4903 
     220    238.33283    1206.9548    8.8720688    8.8720689    17.705597          120    7443.3576    15140.816    93252.297    8254.6714    8473.0174    -1984.048    8.8720688     7.683437    17.705597    38612.157   -2428.3872 
     230    239.96645    1207.2133    8.8727021    8.8727022    17.706861          120    8484.0487   -2169.5577    74431.459   -1002.3889     6067.404    -16884.69    8.8727021    7.6839855    17.706861    26915.317   -2428.4166 
     240    235.75385    1207.4944    8.8733908    8.8733909    17.708235          120    3786.6798    -8529.952    53368.771    1332.4979    4479.9885   -14160.361    8.8733908     7.684582    17.708235      16208.5   -2428.3474 
     250    238.12106    1207.7979     8.874134    8.8741341    17.709718          120    1213.3554    9200.5045    94610.101    8959.7808    5350.5304    1354.9672     8.874134    7.6852256    17.709718    35007.987   -2428.3909 
     260     237.4441    1208.1263    8.8749382    8.8749383    17.711323          120     4334.745     10058.16     106324.1    5885.1769    5338.0268   -6722.3551    8.8749382     7.685922    17.711323    40239.002    -2428.382 
     270    232.58711    1208.4808    8.8758064    8.8758064    17.713056          120     4055.839   -10155.982    70615.257    1856.0928    8200.4672   -20973.694    8.8758064    7.6866739    17.713056    21505.038   -2428.3047 
     280    232.11885    1208.8603    8.8767352    8.8767353    17.714909          120   -719.35992   -6621.2041    85559.581    5999.3043    6857.6544   -8629.9584    8.8767352    7.6874783    17.714909    26073.006   -2428.3031 
     290    220.61519    1209.2657    8.8777274    8.8777275     17.71689          120   -792.88664    13413.912    120898.33    8524.6928    1076.9146    1300.3361    8.8777274    7.6883375     17.71689     44506.45    -2428.116 
     300    216.69001    1209.6994    8.8787888    8.8787888    17.719008          120    795.90018    1751.6809    100168.81    6090.9937     6316.159   -14099.307    8.8787888    7.6892567    17.719008    34238.796   -2428.0606 
     310    201.70875    1210.1609    8.8799176    8.8799176     17.72126          120   -2487.6908   -16930.654     82933.65     6326.974    12082.209   -20221.584    8.8799176    7.6902343     17.72126    21171.768   -2427.8172 
     320     196.7502    1210.6491    8.8811116    8.8811117    17.723643          120   -3080.2447     3216.362    113794.23    7624.2577     2413.251   -4356.0297    8.8811116    7.6912684    17.723643    37976.783   -2427.7469 
     330    184.86442    1211.1662    8.8823757    8.8823758    17.726166          120   -1864.0765    14354.058    121414.63    7228.6796   -498.22147   -3146.9053    8.8823757    7.6923631    17.726166     44634.87   -2427.5487 
     340    181.31277    1211.7126    8.8837114    8.8837115    17.728832          120   -6461.0702    -11011.23    94505.751     8652.631    12323.322   -18998.791    8.8837114    7.6935199    17.728832    25677.817   -2427.5006 
     350    179.48186    1212.2868    8.8851143    8.8851144    17.731631          120   -7415.8686    -10863.13     97956.81    9019.5899    11352.428   -17282.532    8.8851143    7.6947348    17.731631     26559.27   -2427.4809 
     360    178.45382    1212.8886    8.8865844    8.8865845    17.734565          120   -2154.3136    15373.133    120285.87    5727.8863   -1698.7727   -3373.9116    8.8865844    7.6960079    17.734565    44501.565   -2427.4695 
     370    189.21109    1213.5196    8.8881251    8.8881252     17.73764          120    -6886.665    4732.1366    109196.89    7138.3339    4545.2649   -8246.8763    8.8881251    7.6973422     17.73764    35680.786   -2427.6561 
     380    191.12868    1214.1785    8.8897336    8.8897337     17.74085          120   -14839.768   -14755.072    89454.028    11611.369    17812.825   -21303.927    8.8897336    7.6987352     17.74085    19953.063    -2427.692 
     390    207.98145    1214.8636    8.8914052    8.8914053    17.744186          120    -6601.456    5550.9668    102764.33    7114.8095    8343.9772   -14877.169    8.8914052    7.7001829    17.744186    33904.614   -2427.9761 
     400    214.78185    1215.5756    8.8931419    8.8931419    17.747651          120   -1625.3383    15949.459    112251.51    2627.7833   -1546.2452   -3902.0025    8.8931419    7.7016868    17.747651    42191.878   -2428.0834 
     410    230.10087    1216.3149    8.8949444    8.8949445    17.751249          120   -15820.627   -4555.3572    90430.047    8654.2248    13406.328   -12573.811    8.8949444    7.7032479    17.751249    23351.354    -2428.351 
     420    238.77386    1217.0792    8.8968071    8.8968072    17.754966          120   -17748.639   -3714.4233    83367.016    10737.852     20830.74    -22435.99    8.8968071    7.7048611    17.754966    20634.651   -2428.4863 
     430    250.07156    1217.8675    8.8987277    8.8987277    17.758799          120   -68.425534    15444.259     101132.6    1765.0237    3645.8127   -12139.361    8.8987277    7.7065243    17.758799    38836.146   -2428.6759 
     440    259.66961    1218.6812     8.900709    8.9007091    17.762753          120   -5437.9741    10101.411    91170.831    599.77402    4025.4418   -4655.4597     8.900709    7.7082402    17.762753    31944.756   -2428.8379 
     450    265.45157    1219.5189     8.902748    8.9027481    17.766822          120   -24867.816   -2245.1122    69380.958    9003.1499    23425.093   -16438.636     8.902748     7.710006    17.766822    14089.343     -2428.93 
     460    276.85063    1220.3781    8.9048381    8.9048382    17.770993          120   -11127.488    7783.1167    81050.506    6255.4275    16491.924   -21351.108    8.9048381    7.7118161    17.770993    25902.045   -2429.1236 
     470    280.35007    1221.2589      8.90698      8.90698    17.775268          120    4532.4074    17538.091    85147.423   -3419.1498    1852.7934   -8688.9921      8.90698     7.713671    17.775268    35739.307   -2429.1805 
     480    292.65305    1222.1615    8.9091738    8.9091739    17.779646          120   -17623.964    8660.4728    58595.932    285.73975    16078.616   -6360.7351    8.9091738    7.7155709    17.779646    16544.147   -2429.3827 
     490    298.63944    1223.0828    8.9114118    8.9114119    17.784112          120   -27305.692    3447.9922    55981.469    8346.0229    25006.483   -18550.377    8.9114118    7.7175091    17.784112    10707.923   -2429.4814 
     500    309.06994    1224.0207    8.9136892    8.9136892    17.788657          120   -1146.3275    14798.632    70669.363    1193.0784    9469.1943   -17980.959    8.9136892    7.7194813    17.788657    28107.223   -2429.6424 
     510    320.43177    1224.9758     8.916007    8.9160071    17.793282          120   -3078.8738    18906.879    50063.114   -6017.0109    9928.7557   -6335.3751     8.916007    7.7214887    17.793282    21963.707   -2429.8006 
     520    328.74154    1225.9458    8.9183598    8.9183599    17.797978          120   -30951.283    8056.1152    29456.299    2521.6575    24127.275   -8307.0983    8.9183598    7.7235263    17.797978    2187.0438   -2429.9296 
     530    340.82567     1226.927    8.9207385    8.9207386    17.802725          120   -20376.962      8961.52    45036.182    7006.1547    18500.068   -18365.373    8.9207385    7.7255863    17.802725    11206.913   -2430.1248 
     540    348.99142    1227.9188    8.9231414    8.9231415     17.80752          120    717.10264    20711.137    42881.125   -2930.3882    11562.888   -14334.519    8.9231414    7.7276672     17.80752    21436.455   -2430.2475 
     550    359.05448    1228.9202    8.9255665    8.9255665     17.81236          120   -18493.308    16235.052    10401.751   -4572.8218    19925.923    -4683.513    8.9255665    7.7297674     17.81236    2714.4983   -2430.4033 
     560    365.14987    1229.9275    8.9280045    8.9280046    17.817225          120   -33686.381    8088.5739    8857.4424    4993.4363    22146.663   -9677.2674    8.9280045    7.7318788    17.817225   -5580.1217   -2430.4851 
     570    371.60208    1230.9382    8.9304495    8.9304496    17.822105          120   -11894.002    16401.248    27617.481    3605.2554    17032.648   -17450.738    8.9304495    7.7339962    17.822105    10708.243   -2430.5916 
     580    377.68308    1231.9522    8.9329009    8.9329009    17.826997          120   -5774.6311    20149.702     6089.383   -4486.8444    18522.103   -9949.4061    8.9329009    7.7361192    17.826997    6821.4846   -2430.6801 
     590    377.66553    1232.9671    8.9353533    8.9353534    17.831891          120   -28853.107    11816.283   -23302.398   -1584.2456    22107.515   -4722.7831    8.9353533    7.7382431    17.831891   -13446.407   -2430.6637 
     600     384.0671    1233.9794    8.9377979     8.937798     17.83677          120   -27258.566    12601.605   -5095.2295    4148.0109    21088.497   -12641.188    8.9377979    7.7403602     17.83677   -6584.0635   -2430.7717 
     610    379.97559    1234.9879    8.9402323    8.9402324    17.841628          120   -6413.3769    18358.533    4821.9885    280.00988    19450.946   -13768.357    8.9402323    7.7424684    17.841628    5589.0482   -2430.6827 
     620    383.66623    1235.9924    8.9426554    8.9426555    17.846463          120   -14904.318    14400.406   -32622.935   -3922.8207    21183.654   -7751.8756    8.9426554    7.7445668    17.846463   -11042.282   -2430.7275 
     630    379.12672    1236.9896    8.9450597    8.9450597    17.851262          120   -31072.623    11006.895   -44129.141   -117.82094    23948.063   -9472.5028    8.9450597     7.746649    17.851262    -21398.29   -2430.6444 
     640    377.04772    1237.9769    8.9474389    8.9474389     17.85601          120    -16209.26    14961.464   -13337.425    2226.0671    21214.906   -12017.415    8.9474389    7.7487094     17.85601   -4861.7402   -2430.5901 
     650    375.29594    1238.9546    8.9497937    8.9497937    17.860709          120   -6706.8255    14408.069   -24255.756   -1513.1353    19349.257   -10267.618    8.9497937    7.7507488    17.860709    -5518.171   -2430.5376 
     660     367.8267    1239.9214     8.952121    8.9521211    17.865354          120   -24351.954    9745.8439   -62860.748   -2035.4945    25491.419    -11398.48     8.952121    7.7527643    17.865354   -25822.286   -2430.3903 
     670    367.56068     1240.874    8.9544131    8.9544131    17.869928          120   -24500.792    11371.035   -47768.742    973.00966    25233.592   -11085.126    8.9544131    7.7547493    17.869928     -20299.5   -2430.3721 
     680    357.59274    1241.8118    8.9566683    8.9566683    17.874428          120   -6594.7539    13693.118   -23926.257    78.339743    17968.448   -8638.4115    8.9566683    7.7567023    17.874428   -5609.2974   -2430.1887 
     690    358.45631    1242.7354    8.9588884    8.9588884    17.878859          120   -15246.801    9623.9628    -53764.64   -845.70402    23352.369   -11542.253    8.9588884     7.758625    17.878859   -19795.826   -2430.1808 
     700    346.54304    1243.6427    8.9610679     8.961068    17.883208          120   -28191.198    7704.4472    -73521.39    846.90125    30343.422   -13640.246    8.9610679    7.7605125    17.883208   -31336.047   -2429.9591 
     710    346.21664    1244.5315    8.9632022    8.9632023    17.887468          120   -9694.6984     11697.34   -43608.739   -474.05803    21583.953   -8334.2536    8.9632022    7.7623609    17.887468   -13868.699   -2429.9384 
     720    337.55825    1245.4034    8.9652949    8.9652949    17.891644          120   -6304.9665    11808.767   -38771.091   -330.10875    19984.922   -7448.3735    8.9652949    7.7641732    17.891644   -11089.097   -2429.7666 
     730    332.96289    1246.2583    8.9673459     8.967346    17.895737          120   -27052.536    7563.1202   -72241.053    1928.9034    31462.402   -13578.599    8.9673459    7.7659494    17.895737   -30576.823   -2429.6768 
     740    331.83758    1247.0939    8.9693497    8.9693497    17.899736          120   -16262.612    8817.8724    -69724.19   -532.03357    30082.147   -12076.326    8.9693497    7.7676847    17.899736   -25722.977   -2429.6361 
     750    326.48461    1247.9107    8.9713073    8.9713074    17.903643          120     2286.867    13110.342    -41037.42   -1311.1059    21381.992   -5404.7225    8.9713073    7.7693801    17.903643   -8546.7371    -2429.532 
     760    333.27577    1248.7105    8.9732234    8.9732235    17.907467          120   -17390.327    10745.302   -54368.826    2345.2033     27105.06    -8944.494    8.9732234    7.7710395    17.907467    -20337.95   -2429.6142 
     770    332.46327    1249.4919    8.9750948    8.9750949    17.911201          120   -24762.021    7469.2579   -80587.406    580.02924     34965.71   -14694.512    8.9750948    7.7726602    17.911201   -32626.723   -2429.5905 
     780    343.64322    1250.2538    8.9769186    8.9769187    17.914841          120    2969.0027    11963.084   -60565.447   -2085.0831    28933.049   -8944.5491    8.9769186    7.7742396    17.914841    -15211.12   -2429.7669 
     790    347.62999    1250.9981    8.9786998    8.9786998    17.918396          120   -250.09655    13696.014   -43244.596    2114.1254    23771.334   -5385.0576    8.9786998    7.7757822    17.918396   -9932.8928   -2429.8146 
     800    358.11722    1251.7256    8.9804399      8.98044    17.921868          120   -24495.936    9186.4179   -69914.946    2502.3815     30711.63   -12170.301    8.9804399    7.7772892    17.921868   -28408.155   -2429.9783 
     810     362.3593    1252.4347    8.9821353    8.9821354    17.925252          120   -8671.1313    11729.524   -77733.969   -1467.6863    35602.115    -13091.92    8.9821353    7.7787574    17.925252   -24891.859   -2430.0297 
     820    365.89539    1253.1264    8.9837886    8.9837886    17.928551          120    12013.034     17503.24    -47516.39    1338.3634    28232.157   -6528.4299    8.9837886    7.7801892    17.928551   -6000.0387   -2430.0639 
     830    369.42722    1253.8035    8.9854063    8.9854064     17.93178          120     -8365.49    14361.972   -49496.119    5305.2465    24492.357   -7323.3613    8.9854063    7.7815902     17.93178   -14499.879   -2430.1205 
     840    365.91329    1254.4661    8.9869889     8.986989    17.934938          120   -19981.447    14379.575   -74113.938    1821.4859    33680.574   -11602.656    8.9869889    7.7829608    17.934938   -26571.937   -2430.0389 
     850    370.20015    1255.1143    8.9885367    8.9885367    17.938027          120    7083.4573    22634.358   -57347.244    933.93433    36170.548   -9146.8721    8.9885367    7.7843012    17.938027   -9209.8098   -2430.1022 
     860    369.98823    1255.7514    8.9900573    8.9900573    17.941061          120    14211.446    22253.598   -35785.154    6635.7126     25109.51   -5830.5691    8.9900573    7.7856181    17.941061     226.6299   -2430.0767 
     870     375.9608    1256.3799    8.9915569    8.9915569    17.944054          120   -12161.215    17098.279   -53421.577    7244.8577    24662.977   -8017.6971    8.9915569    7.7869167    17.944054   -16161.504    -2430.164 
     880    383.84633    1256.9998    8.9930353    8.9930354    17.947004          120   -6813.6561    23821.224    -59563.23    3816.1672    35984.329   -11345.018    8.9930353    7.7881971    17.947004    -14185.22   -2430.2981 
     890    391.10727    1257.6127    8.9944966    8.9944967    17.949921          120    25382.502    28772.033   -34942.532    6870.9808    31491.183   -10328.881    8.9944966    7.7894627    17.949921     6404.001   -2430.4228 
     900    401.85184    1258.2224    8.9959499      8.99595    17.952821          120    14314.884    20510.366    -31911.14    10943.831    19762.406   -8508.0075    8.9959499    7.7907213    17.952821    971.37027    -2430.593 
     910    406.83498      1258.83    8.9973979     8.997398    17.955711          120   -10230.872    19993.009   -47447.968     9493.932    26842.706   -11964.161    8.9973979    7.7919753    17.955711   -12561.944   -2430.6679 
     920    415.12721    1259.4358     8.998841    8.9988411    17.958591          120    17581.988    30042.364    -36471.24    9348.8064     35174.68   -15305.957     8.998841     7.793225    17.958591     3717.704   -2430.8075 
     930    417.65041    1260.0431    9.0002871    9.0002872    17.961477          120    37284.683    27879.509   -18877.944     11925.02    25172.472   -12256.838    9.0002871    7.7944773    17.961477    15428.749   -2430.8499 
     940    423.40673    1260.6548    9.0017433    9.0017433    17.964382          120    4575.5787    19162.471   -26594.516    13342.367    21222.177   -10990.877    9.0017433    7.7957384    17.964382   -952.15567   -2430.9562 
     950    427.71561    1261.2705    9.0032085    9.0032086    17.967307          120    2441.4708    24775.589   -31598.684    13258.146    32004.438   -16046.982    9.0032085    7.7970074    17.967307   -1460.5415   -2431.0304 
     960    429.42478    1261.8914    9.0046857    9.0046858    17.970255          120    39793.112    32586.439   -15139.527    13113.653    31998.955   -16964.166    9.0046857    7.7982867    17.970255    19080.008    -2431.047 
     970     437.3979     1262.521    9.0061831    9.0061832    17.973243          120    27727.438    25472.746   -9521.3363    14036.868    24816.296   -12262.298    9.0061831    7.7995834    17.973243    14559.616   -2431.1664 
     980    433.69996    1263.1598    9.0077018    9.0077018    17.976274          120   -1947.8763    18506.844   -20418.507      14533.1    28247.874   -13461.173    9.0077018    7.8008986    17.976274   -1286.5128   -2431.1061 
     990    440.79648    1263.8067    9.0092392    9.0092393    17.979342          120    24256.106    27319.649       -14036    13710.374    32382.648   -18202.987    9.0092392    7.8022301    17.979342    12513.252   -2431.2391 
    1000    436.70417     1264.464    9.0108007    9.0108007    17.982458          120     40938.45     32708.14   -1315.1845     14256.54    30652.097   -16156.547    9.0108007    7.8035824    17.982458    24110.469   -2431.1843 
    1010    439.56003    1265.1332    9.0123902    9.0123903     17.98563          120     9093.126    20899.541   -8681.1695    13392.083    30217.807   -12031.965    9.0123902     7.804959     17.98563    7103.8323    -2431.241 
    1020    438.20378    1265.8129    9.0140038    9.0140039     17.98885          120    5175.6091    17649.002   -12521.512    11270.379    31402.122   -14156.247    9.0140038    7.8063564     17.98885    3434.3664   -2431.2354 
    1030     437.8874    1266.5029    9.0156412    9.0156413    17.992118          120    35053.551    31482.401    823.69558    13545.154    33040.402   -17530.064    9.0156412    7.8077744    17.992118    22453.216   -2431.2305 
    1040    440.33749    1267.2052    9.0173075    9.0173075    17.995443          120    24706.744    29476.323    740.35722     12692.95    34338.183   -15307.602    9.0173075    7.8092174    17.995443    18307.808   -2431.2838 
    1050    436.25926    1267.9193    9.0190009     9.019001    17.998823          120   -2395.0762    14933.429   -10219.921    6675.6185    33370.974   -11089.317    9.0190009     7.810684    17.998823     772.8105   -2431.2244 
    1060    441.87334     1268.643    9.0207166    9.0207167    18.002247          120    14789.991    22058.889   -1801.4347    8453.6023    33673.285   -12703.343    9.0207166    7.8121699    18.002247    11682.482   -2431.3502 
    1070    434.49658    1269.3774    9.0224568    9.0224569     18.00572          120    30782.561    32270.983    7306.0869    12214.399    35919.056   -17433.549    9.0224568    7.8136769     18.00572     23453.21   -2431.2429 
    1080    439.57528    1270.1231    9.0242234    9.0242234    18.009245          120     5750.931    19423.486    -4699.772    5065.0179    36042.993    -14701.72    9.0242234    7.8152068    18.009245    6824.8818   -2431.3647 
    1090    432.69325     1270.878    9.0260109     9.026011    18.012812          120   -4368.0583    12384.603   -6898.0575    363.22921    34722.452   -9194.3028    9.0260109    7.8167548    18.012812    372.82903   -2431.2716 
    1100     432.8149    1271.6409    9.0278166    9.0278167    18.016416          120    20692.534    25452.133    8448.8918    8021.1701    35318.814   -13012.932    9.0278166    7.8183186    18.016416    18197.853   -2431.2933 
    1110    430.38643    1272.4131    9.0296437    9.0296437    18.020062          120    18775.392    24484.553     3617.686    8798.9843    37245.286   -19091.954    9.0296437    7.8199009    18.020062    15625.877   -2431.2688 
    1120    425.05553    1273.1939    9.0314901    9.0314902    18.023747          120   -9190.8913    10012.355   -8956.0873   -2183.8225    36660.845   -14393.296    9.0314901    7.8214999    18.023747   -2711.5411   -2431.1966 
    1130    424.35976    1273.9805    9.0333498    9.0333499    18.027458          120     595.5294    13432.091    2744.3854   -833.84738    33644.941   -9236.5983    9.0333498    7.8231105    18.027458    5590.6686   -2431.2144 
    1140    416.69969    1274.7734    9.0352233    9.0352234    18.031197          120     22877.41     23331.23    9516.9517    10337.559    34759.653   -16124.567    9.0352233     7.824733    18.031197    18575.197   -2431.0988 
    1150    415.58487    1275.5732    9.0371125    9.0371126    18.034967          120    58.632513    14825.193   -5131.7105    5015.1899    37597.873   -20538.372    9.0371125    7.8263691    18.034967    3250.7049   -2431.1024 
    1160    406.53259    1276.3777    9.0390121    9.0390122    18.038758          120     -16480.1    5435.8598   -5464.5166   -5422.0498    33087.898   -13232.152    9.0390121    7.8280142    18.038758   -5502.9189   -2430.9631 
    1170    404.73886    1277.1852    9.0409179     9.040918    18.042562          120    12788.902    13264.248    8837.0672      3570.96    28780.999    -10694.48    9.0409179    7.8296646    18.042562    11630.072   -2430.9465 
    1180    398.27075    1277.9969    9.0428328    9.0428329    18.046383          120     13064.94    18253.764    1857.9715    11363.164    33936.585   -17946.911    9.0428328     7.831323    18.046383    11058.892   -2430.8604 
    1190     394.5909    1278.8121     9.044755    9.0447551    18.050219          120   -19789.519    7335.2441   -11682.231    928.44602    35716.206   -18674.717     9.044755    7.8329877    18.050219   -8045.5019   -2430.8232 
    1200    393.66545    1279.6276    9.0466772    9.0466772    18.054055          120   -7482.7804    1628.6436   -238.92419   -2875.3082    26825.658   -11387.037    9.0466772    7.8346523    18.054055   -2031.0204   -2430.8411 
    1210    389.04654    1280.4431    9.0485987    9.0485987     18.05789          120    16380.463    12035.205     6630.957    8434.1102    26142.488   -10955.898    9.0485987    7.8363164     18.05789    11682.208   -2430.7685 
    1220    390.98571    1281.2594    9.0505211    9.0505212    18.061726          120   -8593.6238    13221.631   -13382.477    9656.4685    36521.989   -17187.681    9.0505211    7.8379813    18.061726   -2918.1564   -2430.8139 
    1230    388.33175    1282.0736    9.0524378    9.0524378    18.065551          120   -23764.888   -118.19988   -16702.987   -277.48449    33356.112   -15777.476    9.0524378    7.8396411    18.065551   -13528.692   -2430.7908 
    1240    388.66248    1282.8833    9.0543432    9.0543433    18.069354          120    3201.9243    705.60649    2629.7175    2525.3614    22336.829    -8598.634    9.0543432    7.8412913    18.069354    2179.0828   -2430.8104 
    1250    390.22725    1283.6894    9.0562392    9.0562393    18.073138          120    3402.8607    12305.304   -8119.2094    11403.823     30094.69   -10692.865    9.0562392    7.8429333    18.073138    2529.6516   -2430.8589 
    1260    389.95095    1284.4905    9.0581225    9.0581226    18.076896          120   -24129.648    5660.3024   -31650.371    6774.7487    39325.908   -16399.441    9.0581225    7.8445643    18.076896   -16706.572   -2430.8854 
    1270    395.20484     1285.283     9.059985    9.0599851    18.080613          120   -16838.699   -4240.0646   -16808.315    1171.0733     28185.94    -11484.86     9.059985    7.8461773    18.080613   -12629.026   -2430.9699 
    1280    396.23819    1286.0662     9.061825    9.0618251    18.084285          120    2056.5286    4020.7989   -4084.1684     7765.011    23878.435   -6503.5247     9.061825    7.8477708    18.084285    664.38635    -2430.983 
    1290    404.39955    1286.8403    9.0636428    9.0636429    18.087913          120   -13933.258    7616.6934   -31244.938    10854.274    36675.198   -12543.109    9.0636428     7.849345    18.087913   -12520.501   -2431.1428 
    1300    405.69474    1287.6024    9.0654316    9.0654317    18.091483          120   -28552.286    -2015.308   -41907.698    4529.2474     37649.08   -14556.637    9.0654316    7.8508941    18.091483   -24158.431   -2431.1724 
    1310     412.4949    1288.3498    9.0671855    9.0671855    18.094983          120   -11478.365   -1785.0479   -16848.761    3745.8983    25747.657   -7344.2572    9.0671855     7.852413    18.094983   -10037.391   -2431.3013 
    1320    415.97864     1289.083    9.0689051    9.0689052    18.098414          120   -6689.8231    4218.9691   -21510.309    9241.1734     28068.22   -8127.9821    9.0689051    7.8539023    18.098414   -7993.7209   -2431.3845 
    1330    416.68638    1289.8008    9.0705881    9.0705882    18.101773          120   -27857.367   -161.43617   -50814.209     8136.403    39724.618   -14629.678    9.0705881    7.8553598    18.101773   -26277.671   -2431.4117 
    1340    423.31471    1290.5003    9.0722275    9.0722276    18.105045          120   -27598.564   -2276.5919   -41427.924    2681.3484     33671.03   -10888.313    9.0722275    7.8567796    18.105045   -23767.693   -2431.5408 
    1350    419.91581    1291.1806    9.0738215    9.0738216    18.108226          120   -8465.6265    2583.6915   -22328.121    4011.8235    21551.556   -5670.3032    9.0738215      7.85816    18.108226   -9403.3522    -2431.496 
    1360    427.56376    1291.8427    9.0753721    9.0753722     18.11132          120   -19157.391     1075.274   -42172.111    7353.8201    30416.635   -10973.351    9.0753721    7.8595029     18.11132   -20084.743   -2431.6435 
    1370     424.2859    1292.4846    9.0768749     9.076875    18.114319          120   -37833.604    -1990.866   -56811.461    3971.0049    38604.527   -13961.355    9.0768749    7.8608044    18.114319   -32211.977   -2431.5919 
    1380      430.733    1293.1043    9.0783255    9.0783256    18.117214          120   -19120.492    2992.1897   -37114.268    1485.7178    23826.733     -7178.64    9.0783255    7.8620606    18.117214   -17747.523   -2431.6961 
    1390    430.49013    1293.7031    9.0797266    9.0797266     18.12001          120   -9020.3481      3701.57   -33894.831     3431.473    18690.113   -6142.1982    9.0797266    7.8632739     18.12001   -13071.203   -2431.6835 
    1400    434.68367    1294.2813     9.081079    9.0810791    18.122709          120    -35324.21   -687.30995   -54777.475    3522.5746    32671.147   -13040.211     9.081079    7.8644452    18.122709   -30262.999   -2431.7576 
    1410    438.85214    1294.8367    9.0823777    9.0823778    18.125301          120   -33764.049     2170.802   -53241.293    2888.9944    30589.592   -11549.436    9.0823777    7.8655699    18.125301    -28278.18   -2431.8261 
    1420    440.42962    1295.3693    9.0836228    9.0836229    18.127786          120    -5841.348    5124.2534   -36547.224    2458.3879    16449.642   -4603.0326    9.0836228    7.8666482    18.127786    -12421.44   -2431.8668 
    1430    450.15808    1295.8809    9.0848185    9.0848186    18.130172          120   -20546.177     1558.703   -45075.606    807.20096    20683.611   -7713.3846    9.0848185    7.8676837    18.130172    -21354.36   -2432.0578 
    1440    448.65388    1296.3703    9.0859622    9.0859623    18.132455          120   -41621.907    1207.4726   -61412.933    3335.7062    31541.329   -13625.231    9.0859622    7.8686742    18.132455   -33942.456   -2432.0614 
    1450    458.77275     1296.836      9.08705    9.0870501    18.134625          120   -14020.899    4339.2242   -49673.646    5819.5409    24200.443   -8107.3156      9.08705    7.8696162    18.134625   -19785.107   -2432.2533 
    1460     457.1123    1297.2795    9.0880858    9.0880859    18.136693          120    -5086.078     3033.078   -39047.396    773.72971    15326.678   -3363.8031    9.0880858    7.8705133    18.136693   -13700.132   -2432.2244 
    1470    460.78041    1297.7016    9.0890713    9.0890713    18.138659          120   -34617.515    1134.9207    -57736.18    1051.2455    24578.957   -10026.402    9.0890713    7.8713667    18.138659   -30406.258   -2432.2949 
    1480    459.03045       1298.1    9.0900014    9.0900015    18.140515          120   -27356.278    3266.1041   -65243.959    8076.1769    31159.235   -11547.549    9.0900014    7.8721722    18.140515   -29778.044   -2432.2825 
    1490     456.5387     1298.475    9.0908765    9.0908766    18.142262          120   -852.18989    4723.3421    -44990.45    6078.7694    20737.453   -3573.1003    9.0908765    7.8729301    18.142262   -13706.433   -2432.2691 
    1500     454.8913    1298.8281    9.0917005    9.0917005    18.143906          120   -18617.853    1536.3232   -47476.256    673.57429      18045.8   -5104.3344    9.0917005    7.8736437    18.143906   -21519.262   -2432.2513 
    1510    449.10896    1299.1582    9.0924707    9.0924708    18.145443          120   -35504.566    1207.8705   -70370.922    5434.0504    29435.456   -11087.265    9.0924707    7.8743107    18.145443   -34889.206   -2432.1749 
    1520    449.20167    1299.4637    9.0931833    9.0931833    18.146865          120    -10601.72    6377.6855   -61983.098    10871.591    29364.766   -6136.4914    9.0931833    7.8749278    18.146865   -22069.044   -2432.1953 
    1530    443.92802    1299.7457    9.0938411    9.0938411    18.148178          120   -4629.0282    4706.1307   -45257.829    6013.5505    19574.466   -3564.6998    9.0938411    7.8754975    18.148178   -15060.242    -2432.129 
    1540    445.52346    1300.0047    9.0944452    9.0944453    18.149384          120   -30848.821   -1665.8463   -61849.688    2168.8388    22844.319    -9551.354    9.0944452    7.8760206    18.149384   -31454.785   -2432.1919 
    1550    443.80842    1300.2387    9.0949906    9.0949907    18.150472          120   -26803.068    3601.9517   -74298.955    8935.7511    31696.859   -8386.2734    9.0949906     7.876493    18.150472   -32500.024    -2432.183 
    1560    443.77639    1300.4472    9.0954767    9.0954768    18.151442          120   -2431.9508    9766.5147   -56395.643    12586.289    26631.613   -3741.7161    9.0954767     7.876914    18.151442   -16353.693   -2432.1951 
    1570    446.45869     1300.632    9.0959076    9.0959077    18.152302          120   -14670.719   -154.90405   -51915.072    4843.7095    20259.098   -8405.4887    9.0959076    7.8772871    18.152302   -22246.899   -2432.2624 
    1580    443.87117    1300.7925    9.0962818    9.0962819    18.153049          120   -34726.038    -3479.789    -69498.93    2761.6063    27627.511    -10793.19    9.0962818    7.8776112    18.153049   -35901.585   -2432.2481 
    1590    446.28441    1300.9274    9.0965962    9.0965963    18.153676          120    -14243.11    10283.436   -67594.517    12254.426    31284.364     -4069.13    9.0965962    7.8778835    18.153676   -23851.397   -2432.3135 
    1600    444.03902    1301.0384    9.0968548    9.0968549    18.154192          120    886.15525    8563.0914   -52003.311    12107.595    23233.453   -4715.1089    9.0968548    7.8781075    18.154192   -14184.688   -2432.2928 
    1610    443.26736    1301.1271    9.0970617    9.0970618    18.154605          120   -24301.655   -5936.5444   -55531.689    1301.4896    24021.288   -11738.573    9.0970617    7.8782866    18.154605   -28589.963     -2432.31 
    1620    442.54828    1301.1928    9.0972148    9.0972149    18.154911          120   -29023.029    2892.9642   -64880.107    4275.5906    31043.029   -7182.4171    9.0972148    7.8784192    18.154911   -30336.724   -2432.3182 
    1630    440.26721    1301.2361    9.0973157    9.0973158    18.155112          120    2811.1667    16163.916    -56898.17    15085.286    26617.324    249.05314    9.0973157    7.8785066    18.155112   -12641.029   -2432.2878 
    1640    442.80977    1301.2601    9.0973717    9.0973718    18.155224          120   -1889.6229    3838.3484   -47754.962    7817.9032    23665.026   -6175.1812    9.0973717    7.8785551    18.155224   -15268.746   -2432.3415 
    1650    440.37101    1301.2657    9.0973848    9.0973848     18.15525          120   -29893.621   -3709.1576   -53309.168   -2218.6143    29413.609   -11568.386    9.0973848    7.8785664     18.15525   -28970.649   -2432.3172 
    1660    447.47001    1301.2525    9.0973538    9.0973539    18.155188          120   -8762.8234     12303.95   -55302.222    8912.8981    28202.936   -861.76907    9.0973538    7.8785396    18.155188   -17253.698    -2432.464 
    1670    446.48726    1301.2227    9.0972846    9.0972846     18.15505          120    14120.127    16344.726   -46845.606     14860.67    23625.718    3778.6579    9.0972846    7.8784796     18.15505   -5460.2508   -2432.4652 
    1680    454.96281    1301.1792     9.097183    9.0971831    18.154847          120   -12710.326    1561.9662   -45749.973     255.8753    27632.455    -8767.594     9.097183    7.8783917    18.154847   -18966.111   -2432.6369 
    1690    458.20273    1301.1211    9.0970477    9.0970477    18.154577          120   -19171.073    2111.6356   -49649.756   -844.54913    29741.677   -9238.7392    9.0970477    7.8782745    18.154577   -22236.398   -2432.6888 
    1700    461.83765    1301.0492      9.09688    9.0968801    18.154243          120    12772.557    16835.007   -43685.833    14077.708    24717.374    5701.8235      9.09688    7.8781293    18.154243   -4692.7565   -2432.7791 
    1710     468.5649    1300.9663    9.0966869     9.096687    18.153857          120    7639.6089    14177.194   -40819.581    8956.8167     25122.47    1395.6349    9.0966869    7.8779621    18.153857   -6334.2593   -2432.9241 
    1720    466.81691    1300.8731    9.0964696    9.0964697    18.153424          120   -15361.993    105.72643   -47977.497   -4110.6163    30106.851   -13808.578    9.0964696    7.8777738    18.153424   -21077.921   -2432.9266 
    1730    472.11572    1300.7684    9.0962255    9.0962256    18.152937          120    2769.6274    6703.6506   -43191.874    4842.3665    29221.261   -5539.6055    9.0962255    7.8775625    18.152937   -11239.532   -2433.0337 
    1740     465.2671    1300.6541    9.0959591    9.0959591    18.152405          120    15672.645    20131.113   -33445.069     12797.25    26598.543    5219.8645    9.0959591    7.8773317    18.152405    786.22977   -2432.9469 
    1750     466.6047     1300.532    9.0956746    9.0956747    18.151837          120   -2837.2606    9607.1116   -42905.337    2117.0458    29690.192   -8513.5554    9.0956746    7.8770854    18.151837   -12045.162   -2432.9948 
    1760    456.29459    1300.4013    9.0953699      9.09537    18.151229          120   -2664.0243   -220.70445   -49388.033   -2436.8388    32374.857   -16894.697    9.0953699    7.8768215    18.151229   -17424.254    -2432.864 
    1770    451.97443     1300.262     9.095045    9.0950451    18.150581          120    15030.717    15493.649   -32637.931    6001.5713     32359.64   -3706.9943     9.095045    7.8765401    18.150581   -704.52146   -2432.8233 
    1780    441.63884    1300.1165    9.0947057    9.0947058    18.149904          120    8638.5205    20159.733   -30489.401    6573.1529    33499.969   -2853.7109    9.0947057    7.8762463    18.149904   -563.71568   -2432.6701 
    1790    431.69334    1299.9655    9.0943536    9.0943537    18.149201          120   -2542.5561    4829.1693   -48187.329    -513.3527    34341.045   -17070.806    9.0943536    7.8759413    18.149201   -15300.239   -2432.5214 
    1800    425.89588    1299.8081    9.0939867    9.0939867    18.148469          120    10200.828     8441.056   -40561.327    -840.3808    34855.682   -15175.045    9.0939867    7.8756236    18.148469   -7306.4809   -2432.4561 
    1810    413.77041    1299.6461    9.0936089     9.093609    18.147715          120    18626.948    22819.846   -22344.118    2644.6185    38231.223   -4929.4906    9.0936089    7.8752964    18.147715    6367.5587   -2432.2795 
    1820    412.04828    1299.4819    9.0932258    9.0932259     18.14695          120    3403.1595    16771.559   -33992.603    1892.6601    39331.018   -9945.0312    9.0932258    7.8749646     18.14695   -4605.9614   -2432.2771 
    1830    403.79615    1299.3151    9.0928368    9.0928368    18.146174          120    70.114514    9905.6037   -44270.297    295.95762    36297.074   -17811.899    9.0928368    7.8746277    18.146174   -11431.526    -2432.173 
    1840     404.2392    1299.1459    9.0924421    9.0924422    18.145386          120     20629.39    20358.407    -25331.33    -411.9226    38005.033   -11713.783    9.0924421    7.8742859    18.145386    5218.8226   -2432.2038 
    1850    401.29065    1298.9772    9.0920484    9.0920484      18.1446          120    17140.341    26001.975   -19520.815   -1198.1229     42246.28   -5209.4061    9.0920484    7.8739449      18.1446    7873.8337   -2432.1738 
    1860    401.64301    1298.8102    9.0916589     9.091659    18.143823          120   -5481.7351    20389.965   -35396.189     2087.239    40983.265   -10141.709    9.0916589    7.8736076    18.143823   -6829.3197   -2432.1825 
    1870    401.62081    1298.6445    9.0912722    9.0912723    18.143051          120    8150.8962    21693.427   -31305.426     3533.693    37807.923   -13594.035    9.0912722    7.8732727    18.143051   -487.03447   -2432.2178 
    1880     400.0065    1298.4817    9.0908922    9.0908923    18.142293          120    28694.508    30284.882   -14946.254   -2595.3906    39158.767   -5789.4329    9.0908922    7.8729437    18.142293    14677.712   -2432.2357 
    1890    400.40569    1298.3246    9.0905256    9.0905257    18.141562          120    4005.9879    31503.268   -20004.711   -1734.6674    42882.224   -989.21323    9.0905256    7.8726262    18.141562    5168.1816   -2432.2756 
    1900    395.26146    1298.1733    9.0901725    9.0901726    18.140857          120   -7482.9513    28053.812   -29592.859     7109.201    42080.307   -6463.0279    9.0901725    7.8723204    18.140857   -3007.3329   -2432.2092 
    1910    394.58206    1298.0279     9.089833     9.089833    18.140179          120    24693.981    32330.964   -17544.669    2522.7881     36928.34   -6083.0863     9.089833    7.8720263    18.140179    13160.092   -2432.2314 
    1920    390.25105    1297.8912    9.0895139     9.089514    18.139543          120    21791.798    38463.993    -7628.477   -5315.0232    38261.772    2269.4683    9.0895139    7.8717501    18.139543    17542.438   -2432.1729 
    1930     386.4039    1297.7648    9.0892189     9.089219    18.138954          120    -9050.262    34934.513   -19132.694    3020.6273    43638.785    2599.6271    9.0892189    7.8714946    18.138954     2250.519   -2432.1432 
    1940    386.36605    1297.6477    9.0889454    9.0889455    18.138408          120    7952.0986    32765.072   -20570.162    7619.1934    39518.769   -1421.7419    9.0889454    7.8712577    18.138408    6715.6697   -2432.1566 
    1950     382.2831    1297.5409    9.0886962    9.0886963    18.137911          120    30632.071    39234.919   -4700.2195    -2327.857    34497.201    1275.1371    9.0886962    7.8710419    18.137911    21722.257   -2432.1185 
    1960    384.94874    1297.4468    9.0884763    9.0884764    18.137472          120    5356.6982    39324.635    -8093.904    -2945.123    38693.931    5352.0775    9.0884763    7.8708514    18.137472     12195.81   -2432.1918 
    1970    383.12668     1297.364    9.0882832    9.0882832    18.137086          120   -5783.3916    32294.765   -21542.274     6137.176    40749.798    4858.4863    9.0882832    7.8706842    18.137086    1656.3663   -2432.1798 
    1980    385.93564    1297.2916    9.0881139     9.088114    18.136749          120    22844.186    34398.273   -10779.458    3257.9968    36215.655    1693.8044    9.0881139    7.8705376    18.136749    15487.667   -2432.2543 
    1990     386.4005    1297.2307    9.0879718    9.0879719    18.136465          120     22767.06    39199.277   -3762.3066   -2758.8989     34820.64    1821.8581    9.0879718    7.8704146    18.136465    19401.343   -2432.2779 
    2000    386.83162    1297.1814    9.0878567    9.0878568    18.136235          120   -3846.0365     33061.16     -20276.5    2470.6199    37191.855    6666.8184    9.0878567    7.8703149    18.136235     2979.541   -2432.3023 
    2010    389.16669    1297.1413    9.0877629     9.087763    18.136048          120    5661.0118    28811.075    -21084.35     5885.322    37918.825    5357.8427    9.0877629    7.8702337    18.136048    4462.5789   -2432.3768 
    2020    385.77252    1297.1099    9.0876896    9.0876897    18.135902          120    27614.943    34423.571   -7040.2328    1098.9846    35952.649   -1661.5634    9.0876896    7.8701702    18.135902     18332.76   -2432.3439 
    2030    389.41914    1297.0881    9.0876388    9.0876388      18.1358          120    11997.462    33282.383   -16833.008    1821.2562    34408.041    3047.7349    9.0876388    7.8701261      18.1358     9482.279   -2432.4339 
    2040    381.96617    1297.0742    9.0876063    9.0876064    18.135736          120   -4444.3606    25771.838    -29534.63    7279.8005    36477.706    9503.5323    9.0876063     7.870098    18.135736   -2735.7175   -2432.3329 
    2050    384.69057    1297.0663    9.0875878    9.0875879    18.135699          120     15784.85    28769.997    -16337.36    4760.9764    37113.715    764.81953    9.0875878     7.870082    18.135699    9405.8289   -2432.4096 
    2060    378.16429     1297.065    9.0875848    9.0875848    18.135693          120    25331.074    32169.792   -13430.361    1328.2262    35109.828   -2492.9646    9.0875848    7.8700793    18.135693    14690.168    -2432.327 
    2070    375.79873    1297.0703    9.0875971    9.0875972    18.135717          120    1406.4312    25044.432   -30006.069    7322.6644    35733.385    8788.5242    9.0875971      7.87009    18.135717   -1185.0686   -2432.3049 
    2080    372.14906    1297.0799    9.0876195    9.0876196    18.135762          120   -1212.6342    24149.367    -28010.55    9107.1271    36346.553    8448.0896    9.0876195    7.8701094    18.135762   -1691.2724   -2432.2742 
    2090    365.78953    1297.0931    9.0876505    9.0876505    18.135824          120    22991.316    31617.049   -15518.673    560.11421    35184.584   -1865.4627    9.0876505    7.8701362    18.135824    13029.897   -2432.1763 
    2100    363.42972    1297.1112    9.0876927    9.0876927    18.135908          120    15049.496    27529.067   -24486.939    2880.9916    36261.477    2534.6302    9.0876927    7.8701728    18.135908     6030.541   -2432.1812 
    2110    353.19577    1297.1329    9.0877433    9.0877434    18.136009          120   -7556.8897    20644.845   -34990.104     12207.28    36441.301    12413.881    9.0877433    7.8702167    18.136009   -7300.7162   -2432.0376 
    2120    351.21881    1297.1561    9.0877977    9.0877977    18.136117          120    8253.5727    29034.265   -24647.701    3763.5643    34036.331    7208.8432    9.0877977    7.8702637    18.136117    4213.3788   -2432.0304 
    2130    339.29388    1297.1819    9.0878577    9.0878578    18.136237          120    22134.149    33015.155    -21067.85   -3503.1857      35195.2   -163.63271    9.0878577    7.8703157    18.136237    11360.484   -2431.8484 
    2140    336.73783    1297.2106    9.0879247    9.0879248    18.136371          120   -1.6906838      21619.9   -34567.771    9096.6897    36662.215    7374.4534    9.0879247    7.8703738    18.136371   -4316.5206   -2431.8705 
    2150    327.99378    1297.2398    9.0879932    9.0879932    18.136508          120   -5000.3517    22224.795   -36232.138    10583.303    33781.299    13925.324    9.0879932     7.870433    18.136508   -6335.8982   -2431.7412 
    2160    324.25437     1297.269    9.0880611    9.0880612    18.136643          120    17179.874    34669.453   -25615.917   -4283.5562    32234.244    5661.8862    9.0880611    7.8704919    18.136643    8744.4701   -2431.7029 
    2170    322.39606    1297.2992    9.0881317    9.0881318    18.136784          120    11349.236    28671.816   -31386.756    946.27013    34633.751    358.33701    9.0881317     7.870553    18.136784    2878.0989   -2431.6754 
    2180    318.54609    1297.3293    9.0882019     9.088202    18.136924          120   -7773.1691    17891.378   -44421.585    13871.813    34167.998     8936.002    9.0882019    7.8706138    18.136924   -11434.459   -2431.6399 
    2190    321.78825    1297.3568    9.0882663    9.0882663    18.137053          120    5584.1045    28344.494   -37763.008     3008.187    30100.184    11230.808    9.0882663    7.8706695    18.137053   -1278.1366   -2431.7087 
    2200    321.23678    1297.3825    9.0883261    9.0883262    18.137172          120    16754.106    34485.248    -31084.56   -4362.1816    30680.662    317.37263    9.0883261    7.8707214    18.137172    6718.2645   -2431.7145 
    2210    327.24771    1297.4065    9.0883822    9.0883823    18.137284          120   -1087.0646    21565.653   -45722.144    9520.3819    33674.161   -2044.4648    9.0883822      7.87077    18.137284   -8414.5186   -2431.8324 
    2220    331.44991    1297.4264    9.0884287    9.0884288    18.137377          120   -4512.6709    19591.419   -50880.284    11430.335    30473.328    6817.0647    9.0884287    7.8708102    18.137377   -11933.845   -2431.9109 
    2230    339.86147    1297.4414    9.0884637    9.0884638    18.137447          120    13443.704    31512.749   -36106.997   -1659.8763    26869.365    4454.5817    9.0884637    7.8708405    18.137447    2949.8187   -2432.0791 
    2240    348.26936    1297.4526    9.0884898    9.0884899    18.137499          120    9242.6134    27788.854    -40726.75    1743.0917    30505.669    -7103.993    9.0884898    7.8708632    18.137499   -1231.7609   -2432.2435 
    2250    356.20367    1297.4589    9.0885048    9.0885048    18.137529          120   -6721.0783    16121.484    -56458.04    12624.604    31689.529   -4980.7157    9.0885048    7.8708761    18.137529   -15685.878   -2432.4041 
    2260    366.83089    1297.4586    9.0885039    9.0885039    18.137527          120    3451.2743    22001.889   -45347.457    5810.9047    26138.336    3100.5279    9.0885039    7.8708753    18.137527   -6631.4311   -2432.6114 
    2270    371.69017    1297.4522     9.088489     9.088489    18.137497          120     16195.14    28430.944   -35087.661   -1766.7523    25351.585   -3702.6207     9.088489    7.8708624    18.137497    3179.4744   -2432.7025 
    2280    379.24166    1297.4407    9.0884621    9.0884622    18.137444          120    2590.7059    17456.562   -50957.329    6537.0143    29960.549   -12602.183    9.0884621    7.8708392    18.137444   -10303.354   -2432.8475 
    2290    381.50889    1297.4226    9.0884198    9.0884199    18.137359          120   -4842.8719     13437.83   -53118.129    10353.902    28655.121   -6037.9566    9.0884198    7.8708025    18.137359   -14841.057    -2432.915 
    2300    381.76731    1297.3973    9.0883608    9.0883609    18.137241          120    13840.143    22601.412   -34948.136    1427.4907    22975.371   -424.59761    9.0883608    7.8707514    18.137241    497.80615   -2432.9422 
    2310    382.74923    1297.3666    9.0882892    9.0882893    18.137098          120    16947.798    19048.483   -39357.755    820.27629    24615.051   -9666.6547    9.0882892    7.8706894    18.137098   -1120.4916   -2432.9992 
    2320    376.61444    1297.3305    9.0882049     9.088205     18.13693          120   -2690.4522    9719.3957   -53903.572    8556.5652     29997.97   -14808.878    9.0882049    7.8706164     18.13693   -15624.876   -2432.9211 
    2330    376.20694    1297.2875    9.0881045    9.0881045     18.13673          120    3838.4869    15170.804   -42106.557    6350.7069    26599.145   -5104.9878    9.0881045    7.8705294     18.13673   -7699.0886   -2432.9453 
    2340    369.03279    1297.2384    9.0879899    9.0879899    18.136501          120    24097.189    18959.982   -31875.611    905.48274    20616.528   -2469.3339    9.0879899    7.8704302    18.136501    3727.1865    -2432.851 
    2350    368.29163    1297.1848    9.0878645    9.0878646    18.136251          120    9771.7631    10870.696   -46488.468    4564.4516    26872.069   -14264.264    9.0878645    7.8703216    18.136251   -8615.3362   -2432.8602 
    2360    363.63651    1297.1252    9.0877254    9.0877255    18.135973          120   -4036.6371    9802.5134   -51186.093    7781.9924    32203.831   -14672.795    9.0877254    7.8702011    18.135973   -15140.072   -2432.8142 
    2370    363.97631    1297.0588    9.0875703    9.0875703    18.135664          120    18863.285    16806.095   -35783.267    4389.5855    23358.669   -2247.9224    9.0875703    7.8700668    18.135664   -37.962454   -2432.8413 
    2380    364.43561    1296.9872    9.0874031    9.0874032     18.13533          120    21999.524     15097.34   -37463.969    3645.7012    22259.128   -5489.5537    9.0874031     7.869922     18.13533    -122.3684   -2432.8822 
[...]
    9200    82.670617    1291.4638    9.0744848    9.0744849     18.10955          120   -2762.9255    11910.505   -46664.258   -2739.9352    24120.444    3777.6887    9.0744848    7.8587344     18.10955    -12505.56   -2438.8703 
    9210    82.317933    1291.2738    9.0740397    9.0740398    18.108661          120   -400.53337    13735.662   -40170.562    -242.6813    23280.134    8719.5245    9.0740397     7.858349    18.108661   -8945.1446    -2438.885 
    9220    81.059027    1291.0762    9.0735769     9.073577    18.107738          120    5009.9082    16620.213   -32507.702   -1388.5327    22334.082     10715.79    9.0735769    7.8579482    18.107738   -3625.8604   -2438.8661 
    9230    81.460033    1290.8719    9.0730982    9.0730983    18.106782          120    832.43702    15043.372    -42444.23   -3756.8297    23112.597     4334.423    9.0730982    7.8575336    18.106782   -8856.1404   -2438.8845 
    9240    81.421879    1290.6603    9.0726026    9.0726026    18.105793          120   -1335.8709    14153.234   -47528.498   -2072.1325    24659.044    3291.5657    9.0726026    7.8571044    18.105793   -11570.379   -2438.8983 
    9250    81.861969    1290.4414    9.0720896    9.0720896     18.10477          120    4474.5724    17270.265   -36525.511   -583.84244     23170.28    10146.675    9.0720896    7.8566601     18.10477   -4926.8912   -2438.9024 
    9260    82.573048    1290.2159    9.0715611    9.0715611    18.103715          120    4549.3485    17432.133   -36384.496   -3143.8702    21861.507    8457.4352    9.0715611    7.8562024    18.103715   -4801.0049   -2438.9238 
    9270    82.355505    1289.9839    9.0710173    9.0710174     18.10263          120   -153.78288    14320.823   -48004.184    -4019.418    24766.181    722.09152    9.0710173    7.8557315     18.10263   -11279.048   -2438.9223 
    9280    82.967706    1289.7448    9.0704568    9.0704569    18.101511          120    3129.3541    15561.953   -44351.369   -1998.1071    25049.072    4819.5719    9.0704568    7.8552461    18.101511   -8553.3541    -2438.949 
    9290    81.862622    1289.4989    9.0698804    9.0698805    18.100361          120    7378.5288    18120.166   -34645.214   -2540.6511    21887.153    11228.966    9.0698804    7.8547469    18.100361   -3048.8395    -2438.941 
    9300    81.954603     1289.247    9.0692897    9.0692897    18.099182          120    3161.8551    15103.961   -41650.409   -4204.7283    23802.204    4007.5428    9.0692897    7.8542353    18.099182   -7794.8645   -2438.9526 
    9310    80.413982    1288.9886    9.0686838    9.0686838    18.097973          120    1941.3464    13020.996   -47860.883   -3840.2534    26352.721   -239.27244    9.0686838    7.8537106    18.097973    -10966.18   -2438.9352 
    9320    80.017184    1288.7236    9.0680622    9.0680623    18.096732          120    8374.2198    16398.974   -37720.223   -3554.7957    23176.198    8558.3985    9.0680622    7.8531723    18.096732   -4315.6763   -2438.9379 
    9330    79.075672     1288.453    9.0674274    9.0674275    18.095465          120    8295.2738    16217.358   -34396.796   -3588.6831    22949.987    9285.4693    9.0674274    7.8526226    18.095465   -3294.7216   -2438.9432 
    9340    78.264626    1288.1771    9.0667803    9.0667804    18.094174          120    2683.7719    12286.148   -43575.005   -3889.2002     26345.15    378.73526    9.0667803    7.8520622    18.094174   -9535.0285   -2438.9267 
    9350    78.561439    1287.8957    9.0661201    9.0661201    18.092856          120    6887.8749    13607.884   -41217.197   -5206.8851    24626.912    2883.3934    9.0661201    7.8514904    18.092856   -6907.1462   -2438.9284 
    9360    77.880567    1287.6095    9.0654483    9.0654484    18.091516          120    13042.867    16388.237   -31231.412   -4508.9283    22698.062    10438.977    9.0654483    7.8509086    18.091516   -600.10272   -2438.9256 
    9370    78.990658    1287.3195    9.0647678    9.0647679    18.090158          120    7355.8103    13738.905   -34984.973    -2876.242    25252.834    5741.0307    9.0647678    7.8503193    18.090158    -4630.086   -2438.9656 
    9380     78.98041    1287.0259    9.0640786    9.0640786    18.088782          120     4829.919    12230.809    -40810.82   -5018.4299    25165.031    579.19774    9.0640786    7.8497224    18.088782   -7916.6972   -2438.9658 
    9390    80.435912    1286.7287    9.0633807    9.0633808     18.08739          120    14148.134    15438.959   -32826.835   -6634.6876    22984.187    6700.5351    9.0633807     7.849118     18.08739    -1079.914   -2438.9999 
    9400    81.089592    1286.4292    9.0626775    9.0626775    18.085986          120    14360.255    15974.482   -28021.484   -3565.2246     23978.38    9934.9001    9.0626775     7.848509    18.085986    771.08437   -2439.0201 
    9410    82.340177    1286.1281    9.0619704    9.0619705    18.084575          120    6009.5762    13286.215   -35392.566   -3260.8033     24499.02    3877.6627    9.0619704    7.8478967    18.084575   -5365.5918   -2439.0565 
    9420    83.415506    1285.8252     9.061259     9.061259    18.083155          120    11288.629    14705.412   -35684.168   -7156.5515    23284.981    2897.4161     9.061259    7.8472805    18.083155   -3230.0425   -2439.1016 
    9430    83.848976    1285.5212    9.0605449     9.060545     18.08173          120    19137.544    17916.422   -26942.991   -6422.8968    23420.371    9142.8016    9.0605449    7.8466621     18.08173    3370.3251   -2439.1257 
    9440    84.827573    1285.2174    9.0598311    9.0598311    18.080306          120    11658.457    16424.451   -28525.217   -3057.3779    23406.255    8933.3564    9.0598311    7.8460439    18.080306   -147.43651   -2439.1575 
    9450    84.341941    1284.9138    9.0591175    9.0591176    18.078882          120    8196.1373    15030.051   -35085.963   -5177.4371    23127.766    3224.1231    9.0591175     7.845426    18.078882   -3953.2582    -2439.166 
    9460    84.719335    1284.6103    9.0584043    9.0584044    18.077459          120    18486.048    18830.602   -29943.311   -8281.4744    23579.932    5206.2408    9.0584043    7.8448084    18.077459    2457.7796   -2439.1812 
    9470    84.027913    1284.3083    9.0576943    9.0576943    18.076041          120    18901.647    20349.007   -24698.328   -5843.3278    22867.411    10450.679    9.0576943    7.8441934    18.076041    4850.7753   -2439.1787 
    9480    83.639346    1284.0082    9.0569889     9.056989    18.074634          120    9498.2939    17177.303   -30504.027   -3744.8806    22576.455    6878.4909    9.0569889    7.8435825    18.074634   -1276.1436   -2439.1743 
    9490    83.320158      1283.71    9.0562876    9.0562877    18.073234          120    13685.628    18515.385    -32150.87   -6904.3341    23780.435    2835.5098    9.0562876    7.8429752    18.073234     16.71427   -2439.1726 
    9500    82.586016    1283.4141    9.0555916    9.0555917    18.071845          120    22686.292    22986.784   -25334.001   -9019.5438    23006.883    7635.2248    9.0555916    7.8423724    18.071845    6779.6918   -2439.1525 
    9510    82.456383    1283.1215    9.0549035    9.0549036    18.070472          120    16139.401    20995.843   -25801.362   -5595.6445     22217.06     9543.219    9.0549035    7.8417765    18.070472    3777.9606   -2439.1647 
    9520    81.608378    1282.8324    9.0542233    9.0542234    18.069115          120    10260.806    18291.498   -30876.448    -4229.871    23623.099    4260.6028    9.0542233    7.8411875    18.069115   -774.71473   -2439.1723 
    9530    81.518042    1282.5465    9.0535506    9.0535507    18.067772          120    20076.425    22878.068   -27617.552   -9162.9047    23016.033    4450.0515    9.0535506    7.8406049    18.067772    5112.3135   -2439.1723 
    9540    80.796766    1282.2648    9.0528877    9.0528878    18.066449          120    23639.858    24892.155   -23884.201   -9700.2311    21830.798    8866.0176    9.0528877    7.8400308    18.066449    8215.9373   -2439.1633 
    9550    80.624552    1281.9879    9.0522362    9.0522363    18.065149          120    13320.637    20361.747   -27483.759   -4151.4916    23215.132    7015.6022    9.0522362    7.8394666    18.065149    2066.2084    -2439.169 
    9560    80.724744    1281.7157    9.0515953    9.0515954     18.06387          120    14544.595    21369.616   -28369.989   -6221.2956    22748.789     4155.395    9.0515953    7.8389116     18.06387    2514.7407   -2439.1787 
    9570    80.581165    1281.4483    9.0509659     9.050966    18.062614          120    25954.247    26724.374   -24193.282   -12265.845    20975.184    6542.9697    9.0509659    7.8383665    18.062614    9495.1131   -2439.1835 
    9580    81.749722     1281.187    9.0503506    9.0503507    18.061386          120     21582.41    24691.761   -24759.837   -7935.8449    22585.817    7913.4091    9.0503506    7.8378336    18.061386    7171.4447   -2439.2049 
    9590    81.924959    1280.9318    9.0497496    9.0497497    18.060187          120    12670.656    21577.255   -27987.168   -3848.6337    22783.258    6019.2072    9.0497496    7.8373132    18.060187    2086.9141   -2439.2161 
    9600    83.417089    1280.6824    9.0491623    9.0491623    18.059015          120    21961.819    26159.721   -25549.986   -10667.893    20081.175    5723.2127    9.0491623    7.8368045    18.059015    7523.8514   -2439.2418 
    9610    83.791837    1280.4397    9.0485907    9.0485908    18.057874          120     28426.13    28700.004   -23456.472    -12570.57    21349.519    6971.1464    9.0485907    7.8363095    18.057874    11223.221   -2439.2584 
    9620    84.315204    1280.2045    9.0480367    9.0480367    18.056768          120    17695.871    24960.982   -27136.191   -5695.8827    23207.779    7364.6331    9.0480367    7.8358297    18.056768    5173.5542   -2439.2806 
    9630     84.19857    1279.9764    9.0474991    9.0474991    18.055695          120    16645.521    25401.788   -27421.331   -7023.8133    20538.232    7063.3425    9.0474991    7.8353641    18.055695     4875.326   -2439.2879 
    9640    83.101879    1279.7555    9.0469786    9.0469787    18.054657          120    28682.409     30129.98   -23126.592   -13587.426    20256.515    6773.0932    9.0469786    7.8349134    18.054657    11895.266   -2439.2918 
    9650    82.168856     1279.543    9.0464779     9.046478    18.053657          120    25961.216    29797.676   -25099.398     -10661.2    23174.871    7493.5406    9.0464779    7.8344797    18.053657    10219.831   -2439.2926 
    9660    79.850683     1279.339    9.0459971    9.0459972    18.052698          120    16320.715     26941.73   -28705.029   -5866.2806    22409.257    8657.6383    9.0459971    7.8340634    18.052698     4852.472   -2439.2689 
    9670    78.953818    1279.1432    9.0455356    9.0455357    18.051777          120    23689.471    29714.982   -24123.639   -10208.511    20968.918     8364.889    9.0455356    7.8336637    18.051777    9760.2712   -2439.2631 
    9680    76.943555    1278.9566    9.0450956    9.0450957    18.050899          120    31031.537    33191.195   -22029.455   -13694.461    22912.535    7800.4504    9.0450956    7.8332827    18.050899    14064.425   -2439.2315 
    9690    76.858628    1278.7798    9.0446789     9.044679    18.050067          120    22041.472    30711.572   -27334.782   -8756.6416    24212.425    8750.4793    9.0446789    7.8329218    18.050067     8472.754   -2439.2399 
    9700    76.626948    1278.6126    9.0442848    9.0442849    18.049281          120    19027.193    29486.396   -26047.155   -6381.5446    23628.358    9671.7382    9.0442848    7.8325805    18.049281    7488.8115   -2439.2368 
    9710    77.185369    1278.4553    9.0439138    9.0439139     18.04854          120    29109.446    33862.685   -19951.414   -11401.242    23746.815    9358.4101    9.0439138    7.8322592     18.04854    14340.239   -2439.2601 
    9720     78.33048    1278.3088    9.0435683    9.0435684    18.047851          120    28734.226    34417.631    -23110.88   -12076.908     24890.47    8461.0377    9.0435683      7.83196    18.047851    13346.992   -2439.3057 
    9730    78.550044    1278.1732    9.0432486    9.0432487    18.047213          120    19463.091    30616.238   -26816.748   -6186.0293    26267.312    8725.8051    9.0432486    7.8316831    18.047213    7754.1934    -2439.318 
    9740    79.332531    1278.0483    9.0429539     9.042954    18.046625          120    23107.381    32671.203   -20297.139   -6519.0562    25953.656    10386.341    9.0429539    7.8314279    18.046625    11827.148   -2439.3399 
    9750    78.309137    1277.9346    9.0426858    9.0426859     18.04609          120     30697.62    36526.095   -17554.034   -11942.937     25091.14    9840.5838    9.0426858    7.8311957     18.04609     16556.56   -2439.3322 
    9760    77.681293    1277.8331    9.0424463    9.0424464    18.045612          120    24584.631    33466.644   -23638.935    -9137.559     27234.28    7379.2533    9.0424463    7.8309883    18.045612     11470.78    -2439.338 
    9770    75.649975    1277.7434    9.0422348    9.0422349     18.04519          120    19364.212    31753.475   -21880.205   -3912.0188    28197.433    9058.0527    9.0422348    7.8308051     18.04519    9745.8272   -2439.3087 
    9780    74.185855    1277.6657    9.0420514    9.0420515    18.044824          120     27126.05     36357.66   -14116.689   -8282.8603    25334.332    11724.372    9.0420514    7.8306463    18.044824    16455.674   -2439.2922 
    9790    72.678361    1277.6009    9.0418987    9.0418988    18.044519          120    29464.634    36602.258   -17095.318   -11316.743    26084.794    8265.3779    9.0418987    7.8305141    18.044519    16323.858   -2439.2679 
    9800    71.551135    1277.5495    9.0417773    9.0417774    18.044277          120    21059.518    32618.317   -22128.772   -5400.6428    28934.245     6508.532    9.0417773    7.8304089    18.044277    10516.355   -2439.2631 
    9810    71.750593    1277.5108    9.0416862    9.0416862    18.044095          120    22102.241    34705.552   -15276.973   -4645.2048    25791.379    11331.107    9.0416862      7.83033    18.044095    13843.607   -2439.2763 
    9820    71.661424    1277.4856    9.0416266    9.0416267    18.043976          120    29985.838    37781.084   -11229.703   -10322.612     23528.42    11107.934    9.0416266    7.8302784    18.043976     18845.74   -2439.2836 
    9830    72.819647    1277.4745    9.0416004    9.0416005    18.043924          120     25683.53     34796.48   -18612.607   -8613.6877    26855.043    6143.2779    9.0416004    7.8302557    18.043924    13955.801   -2439.3233 
    9840    73.307229    1277.4771    9.0416066    9.0416067    18.043936          120    20058.128    33558.201    -18995.36   -4296.3131    25988.999    8765.2687    9.0416066    7.8302611    18.043936    11540.323   -2439.3286 
    9850    73.804908    1277.4933    9.0416448    9.0416449    18.044012          120     26964.16    36733.902   -10090.417   -7528.8183    21509.974     13042.04    9.0416448    7.8302942    18.044012    17869.215   -2439.3509 
    9860    73.786117    1277.5239    9.0417171    9.0417171    18.044156          120    29529.517    36404.642   -11699.307    -10128.69     22741.99    9158.9214    9.0417171    7.8303568    18.044156    18078.284   -2439.3556 
    9870    72.885412    1277.5692    9.0418238    9.0418239     18.04437          120    22164.547    33565.138   -19261.895   -6903.8027    24622.627    7074.1201    9.0418238    7.8304492     18.04437     12155.93   -2439.3564 
    9880     72.12853    1277.6285    9.0419638    9.0419638    18.044649          120    23739.634    34618.329   -13489.441   -6121.2402    21460.407    12146.912    9.0419638    7.8305704    18.044649    14956.174   -2439.3535 
    9890    70.574847    1277.7024     9.042138    9.0421381    18.044997          120    30391.031    36295.789    -6548.938   -9007.1446    19805.485    13079.542     9.042138    7.8307213    18.044997    20045.961   -2439.3433 
    9900    69.927088    1277.7915    9.0423482    9.0423483    18.045416          120    26638.838    34005.832   -13943.512   -9186.8914    21669.051    8640.6736    9.0423482    7.8309034    18.045416    15567.053   -2439.3367 
    9910    68.904156    1277.8954    9.0425934    9.0425935    18.045905          120    22976.974    32268.319   -16997.003   -7075.9103    21922.375    9372.0506    9.0425934    7.8311157    18.045905     12749.43   -2439.3235 
    9920    68.749353     1278.014     9.042873    9.0428731    18.046463          120    28532.049    34342.563   -7019.9348   -7246.0628    20117.662    14215.792     9.042873    7.8313578    18.046463    18618.226   -2439.3316 
    9930    68.802471    1278.1479    9.0431888    9.0431888    18.047093          120    29937.809    34296.357   -7047.9936   -9124.2946    19529.764    12839.058    9.0431888    7.8316313    18.047093    19062.058   -2439.3399 
    9940     68.44298     1278.297    9.0435406    9.0435406    18.047796          120     24757.13    30593.697    -16206.92    -8659.733    21304.985    8385.7163    9.0435406    7.8319359    18.047796    13047.969   -2439.3432 
    9950    68.857968    1278.4608    9.0439268    9.0439269    18.048566          120    26015.734    30888.485   -11806.838   -6864.3813    22219.695    11616.344    9.0439268    7.8322704    18.048566     15032.46   -2439.3611 
    9960    67.881158    1278.6394    9.0443478    9.0443478    18.049406          120    30271.711     33605.75   -4046.0605     -7847.19    20190.443    16191.231    9.0443478     7.832635    18.049406      19943.8   -2439.3543 
    9970    67.823935    1278.8331    9.0448045    9.0448046    18.050318          120    27176.376    30713.403   -10943.435   -9186.0916    20387.644     11744.43    9.0448045    7.8330306    18.050318    15648.781   -2439.3653 
    9980       66.634    1279.0414    9.0452956    9.0452956    18.051298          120    24403.974    27880.116   -15749.778   -7620.4073    23525.102    8891.1202    9.0452956    7.8334558    18.051298    12178.104   -2439.3563 
    9990    66.180803    1279.2637    9.0458197    9.0458198    18.052344          120    28423.351    31324.717   -7258.2841   -7322.8852    22498.445    15331.647    9.0458197    7.8339098    18.052344    17496.594   -2439.3538 
   10000     65.56453    1279.5006    9.0463778    9.0463779    18.053458          120    28826.178    31718.275   -5983.2976   -8829.1552    20311.278    16496.504    9.0463778    7.8343931    18.053458    18187.051   -2439.3488 
Loop time of 28.4793 on 1 procs for 10000 steps with 128 atoms

Performance: 3.034 ns/day, 7.911 hours/ns, 351.133 timesteps/s
99.9% CPU use with 1 MPI tasks x no OpenMP threads

MPI task timing breakdown:
Section |  min time  |  avg time  |  max time  |%varavg| %total
---------------------------------------------------------------
Pair    | 23.437     | 23.437     | 23.437     |   0.0 | 82.29
Bond    | 0.0072341  | 0.0072341  | 0.0072341  |   0.0 |  0.03
Kspace  | 1.8214     | 1.8214     | 1.8214     |   0.0 |  6.40
Neigh   | 0.51004    | 0.51004    | 0.51004    |   0.0 |  1.79
Comm    | 0.2622     | 0.2622     | 0.2622     |   0.0 |  0.92
Output  | 1.2334     | 1.2334     | 1.2334     |   0.0 |  4.33
Modify  | 1.1628     | 1.1628     | 1.1628     |   0.0 |  4.08
Other   |            | 0.04536    |            |       |  0.16

Nlocal:    128 ave 128 max 128 min
Histogram: 1 0 0 0 0 0 0 0 0 0
Nghost:    8257 ave 8257 max 8257 min
Histogram: 1 0 0 0 0 0 0 0 0 0
Neighs:    95774 ave 95774 max 95774 min
Histogram: 1 0 0 0 0 0 0 0 0 0

Total # of neighbors = 95774
Ave neighs/atom = 748.234
Ave special neighs/atom = 0.1875
Neighbor list builds = 195
Dangerous builds = 0
print		" "
 
print		"All done!"
All done!
Total wall time: 0:00:31
