ITEM: TIMESTEP
0
ITEM: NUMBER OF ATOMS
128
ITEM: BOX BOUNDS xy xz yz pp pp pp
-4.6040000000000001e+00 9.2080000000000002e+00 -4.6040000000000001e+00
0.0000000000000000e+00 7.9743620000000002e+00 0.0000000000000000e+00
0.0000000000000000e+00 1.8376000000000001e+01 0.0000000000000000e+00
ITEM: ATOMS id type element x y z ix iy iz 
1 1 C 4.604 0 2.297 0 0 0 
2 1 C 4.604 0 6.891 0 0 0 
3 1 C -2.302 3.98718 2.297 0 0 0 
4 1 C -2.302 3.98718 6.891 0 0 0 
5 1 C 2.302 3.98718 2.297 0 0 0 
6 1 C 2.302 3.98718 6.891 0 0 0 
7 2 C -1.52471e-16 5.31624 2.297 0 0 0 
8 2 C 4.604 2.65812 6.891 0 0 0 
9 2 C 4.604 2.65812 2.297 0 0 0 
10 2 C -1.52471e-16 5.31624 6.891 0 0 0 
11 3 C 3.03865 0.921267 0 0 0 0 
12 3 C 1.56535 7.0531 0 0 0 0 
13 3 C 6.89083 2.17092 0 0 0 0 
14 3 C -2.28683 5.80344 0 0 0 0 
15 3 C 3.88251 4.88218 0 0 0 0 
16 3 C 0.721487 3.09219 0 0 0 0 
17 3 C -0.721487 3.09219 4.594 0 0 0 
18 3 C 5.32549 4.88218 4.594 0 0 0 
19 3 C -1.56535 7.0531 4.594 0 0 0 
20 3 C 6.16934 0.921267 4.594 0 0 0 
21 3 C 2.28683 5.80344 4.594 0 0 0 
22 3 C 2.31717 2.17092 4.594 0 0 0 
23 4 C 1.75742 1.87357 0 0 0 0 
24 4 C 2.84657 6.10079 0 0 0 0 
25 4 C 6.70672 0.585188 0 0 0 0 
26 4 C -2.10272 7.38917 0 0 0 0 
27 4 C 5.34785 5.5156 0 0 0 0 
28 4 C -0.743851 2.45876 0 0 0 0 
29 4 C 0.74385 2.45876 4.594 0 0 0 
30 4 C 3.86015 5.5156 4.594 0 0 0 
31 4 C -2.84658 6.10079 4.594 0 0 0 
32 4 C 7.45058 1.87357 4.594 0 0 0 
33 4 C 2.10272 7.38917 4.594 0 0 0 
34 4 C 2.50128 0.585188 4.594 0 0 0 
35 4 C 3.92629 1.15697 1.3432 0 0 0 
36 4 C 0.677713 6.81739 7.8448 0 0 0 
37 4 C 6.24289 2.82178 1.3432 0 0 0 
38 4 C -1.63889 5.15259 7.8448 0 0 0 
39 4 C 3.64283 3.99561 1.3432 0 0 0 
40 4 C 0.961175 3.97875 7.8448 0 0 0 
41 4 C 0.677713 6.81739 1.3432 0 0 0 
42 4 C 3.92629 1.15697 7.8448 0 0 0 
43 4 C -1.63889 5.15259 1.3432 0 0 0 
44 4 C 6.24289 2.82178 7.8448 0 0 0 
45 4 C 0.961175 3.97875 1.3432 0 0 0 
46 4 C 3.64283 3.99561 7.8448 0 0 0 
47 4 C -0.961175 3.97875 3.2508 0 0 0 
48 4 C 5.56518 3.99561 5.9372 0 0 0 
49 4 C -0.677713 6.81739 3.2508 0 0 0 
50 4 C 5.28171 1.15697 5.9372 0 0 0 
51 4 C 1.63889 5.15259 3.2508 0 0 0 
52 4 C 2.96511 2.82178 5.9372 0 0 0 
53 4 C 5.56518 3.99561 3.2508 0 0 0 
54 4 C -0.961175 3.97875 5.9372 0 0 0 
55 4 C 5.28171 1.15697 3.2508 0 0 0 
56 4 C -0.677713 6.81739 5.9372 0 0 0 
57 4 C 2.96511 2.82178 3.2508 0 0 0 
58 4 C 1.63889 5.15259 5.9372 0 0 0 
59 1 C 4.604 0 11.485 0 0 0 
60 1 C 4.604 0 16.079 0 0 0 
61 1 C -2.302 3.98718 11.485 0 0 0 
62 1 C -2.302 3.98718 16.079 0 0 0 
63 1 C 2.302 3.98718 11.485 0 0 0 
64 1 C 2.302 3.98718 16.079 0 0 0 
65 2 C -1.52471e-16 5.31624 11.485 0 0 0 
66 2 C 4.604 2.65812 16.079 0 0 0 
67 2 C 4.604 2.65812 11.485 0 0 0 
68 2 C -1.52471e-16 5.31624 16.079 0 0 0 
69 3 C 3.03865 0.921267 9.188 0 0 0 
70 3 C 1.56535 7.0531 9.188 0 0 0 
71 3 C 6.89083 2.17092 9.188 0 0 0 
72 3 C -2.28683 5.80344 9.188 0 0 0 
73 3 C 3.88251 4.88218 9.188 0 0 0 
74 3 C 0.721487 3.09219 9.188 0 0 0 
75 3 C -0.721487 3.09219 13.782 0 0 0 
76 3 C 5.32549 4.88218 13.782 0 0 0 
77 3 C -1.56535 7.0531 13.782 0 0 0 
78 3 C 6.16934 0.921267 13.782 0 0 0 
79 3 C 2.28683 5.80344 13.782 0 0 0 
80 3 C 2.31717 2.17092 13.782 0 0 0 
81 4 C 1.75742 1.87357 9.188 0 0 0 
82 4 C 2.84657 6.10079 9.188 0 0 0 
83 4 C 6.70672 0.585188 9.188 0 0 0 
84 4 C -2.10272 7.38917 9.188 0 0 0 
85 4 C 5.34785 5.5156 9.188 0 0 0 
86 4 C -0.743851 2.45876 9.188 0 0 0 
87 4 C 0.74385 2.45876 13.782 0 0 0 
88 4 C 3.86015 5.5156 13.782 0 0 0 
89 4 C -2.84658 6.10079 13.782 0 0 0 
90 4 C 7.45058 1.87357 13.782 0 0 0 
91 4 C 2.10272 7.38917 13.782 0 0 0 
92 4 C 2.50128 0.585188 13.782 0 0 0 
93 4 C 3.92629 1.15697 10.5312 0 0 0 
94 4 C 0.677713 6.81739 17.0328 0 0 0 
95 4 C 6.24289 2.82178 10.5312 0 0 0 
96 4 C -1.63889 5.15259 17.0328 0 0 0 
97 4 C 3.64283 3.99561 10.5312 0 0 0 
98 4 C 0.961175 3.97875 17.0328 0 0 0 
99 4 C 0.677713 6.81739 10.5312 0 0 0 
100 4 C 3.92629 1.15697 17.0328 0 0 0 
101 4 C -1.63889 5.15259 10.5312 0 0 0 
102 4 C 6.24289 2.82178 17.0328 0 0 0 
103 4 C 0.961175 3.97875 10.5312 0 0 0 
104 4 C 3.64283 3.99561 17.0328 0 0 0 
105 4 C -0.961175 3.97875 12.4388 0 0 0 
106 4 C 5.56518 3.99561 15.1252 0 0 0 
107 4 C -0.677713 6.81739 12.4388 0 0 0 
108 4 C 5.28171 1.15697 15.1252 0 0 0 
109 4 C 1.63889 5.15259 12.4388 0 0 0 
110 4 C 2.96511 2.82178 15.1252 0 0 0 
111 4 C 5.56518 3.99561 12.4388 0 0 0 
112 4 C -0.961175 3.97875 15.1252 0 0 0 
113 4 C 5.28171 1.15697 12.4388 0 0 0 
114 4 C -0.677713 6.81739 15.1252 0 0 0 
115 4 C 2.96511 2.82178 12.4388 0 0 0 
116 4 C 1.63889 5.15259 15.1252 0 0 0 
117 6 C 4.7194 7.08188 2.297 0 0 0 
118 5 C -3.66 7.57294 2.56585 1 0 0 
119 5 C 4.33034 7.50704 1.47977 0 0 0 
120 6 C 4.7194 7.08188 11.485 0 0 0 
121 5 C -3.66 7.57294 11.7539 1 0 0 
122 5 C 4.33034 7.50704 10.6678 0 0 0 
123 6 C 4.7194 7.08188 16.079 0 0 0 
124 5 C -3.66 7.57294 16.3479 1 0 0 
125 5 C 4.33034 7.50704 15.2618 0 0 0 
126 6 C 4.7194 7.08188 6.891 0 0 0 
127 5 C -3.66 7.57294 7.15985 1 0 0 
128 5 C 4.33034 7.50704 6.07377 0 0 0 
ITEM: TIMESTEP
1
ITEM: NUMBER OF ATOMS
128
ITEM: BOX BOUNDS xy xz yz pp pp pp
-4.6030792000000007e+00 9.2075396000000005e+00 -4.6035396000000004e+00
3.9871810000000003e-04 7.9739632819000006e+00 0.0000000000000000e+00
9.1880000000000011e-04 1.8375081200000000e+01 0.0000000000000000e+00
ITEM: ATOMS id type element x y z ix iy iz 
1 1 C 4.604 0.000398707 2.29769 0 0 0 
2 1 C 4.604 0.000398707 6.89123 0 0 0 
3 1 C -2.30131 3.98718 2.29769 0 0 0 
4 1 C -2.30131 3.98718 6.89123 0 0 0 
5 1 C 2.30223 3.98718 2.29769 0 0 0 
6 1 C 2.30223 3.98718 6.89123 0 0 0 
7 2 C 0.000460428 5.31611 2.29769 0 0 0 
8 2 C 4.604 2.65825 6.89123 0 0 0 
9 2 C 4.604 2.65825 2.29769 0 0 0 
10 2 C 0.000460428 5.31611 6.89123 0 0 0 
11 3 C 3.03881 0.921574 0.000918811 0 0 0 
12 3 C 1.56565 7.05279 0.000918767 0 0 0 
13 3 C 6.8906 2.1711 0.000918786 0 0 0 
14 3 C -2.28614 5.80326 0.000918808 0 0 0 
15 3 C 3.88259 4.88209 0.000918764 0 0 0 
16 3 C 0.721875 3.09228 0.000918795 0 0 0 
17 3 C -0.720955 3.09227 4.59446 0 0 0 
18 3 C 5.32542 4.88209 4.59446 0 0 0 
19 3 C -1.56473 7.05279 4.59446 0 0 0 
20 3 C 6.16919 0.921574 4.59446 0 0 0 
21 3 C 2.28706 5.80326 4.59446 0 0 0 
22 3 C 2.3174 2.1711 4.59446 0 0 0 
23 4 C 1.75771 1.87379 0.000918799 0 0 0 
24 4 C 2.84675 6.10058 0.000918848 0 0 0 
25 4 C 6.70651 0.585528 0.000918826 0 0 0 
26 4 C -2.10205 7.38883 0.000918781 0 0 0 
27 4 C 5.34778 5.51545 0.000918821 0 0 0 
28 4 C -0.743316 2.45891 0.00091881 0 0 0 
29 4 C 0.744236 2.45891 4.59446 0 0 0 
30 4 C 3.86022 5.51545 4.59446 0 0 0 
31 4 C -2.84583 6.10058 4.59446 0 0 0 
32 4 C 7.45029 1.87379 4.59446 0 0 0 
33 4 C 2.10297 7.38883 4.59446 0 0 0 
34 4 C 2.50149 0.585528 4.59446 0 0 0 
35 4 C 3.92635 1.15726 1.34398 0 0 0 
36 4 C 0.678106 6.81711 7.84494 0 0 0 
37 4 C 6.24273 2.82189 1.34398 0 0 0 
38 4 C -1.63826 5.15247 7.84494 0 0 0 
39 4 C 3.64292 3.99561 1.34398 0 0 0 
40 4 C 0.96154 3.97875 7.84494 0 0 0 
41 4 C 0.678106 6.81711 1.34398 0 0 0 
42 4 C 3.92635 1.15726 7.84494 0 0 0 
43 4 C -1.63826 5.15247 1.34398 0 0 0 
44 4 C 6.24273 2.82189 7.84494 0 0 0 
45 4 C 0.96154 3.97875 1.34398 0 0 0 
46 4 C 3.64292 3.99561 7.84494 0 0 0 
47 4 C -0.960619 3.97875 3.25139 0 0 0 
48 4 C 5.56508 3.99561 5.93753 0 0 0 
49 4 C -0.677185 6.81711 3.25139 0 0 0 
50 4 C 5.28165 1.15726 5.93753 0 0 0 
51 4 C 1.63918 5.15247 3.25139 0 0 0 
52 4 C 2.96528 2.82189 5.93753 0 0 0 
53 4 C 5.56508 3.99561 3.25139 0 0 0 
54 4 C -0.960619 3.97875 5.93753 0 0 0 
55 4 C 5.28165 1.15726 3.25139 0 0 0 
56 4 C -0.677185 6.81711 5.93753 0 0 0 
57 4 C 2.96528 2.82189 3.25139 0 0 0 
58 4 C 1.63918 5.15247 5.93753 0 0 0 
59 1 C 4.604 0.000398707 11.4848 0 0 0 
60 1 C 4.604 0.000398707 16.0783 0 0 0 
61 1 C -2.30131 3.98718 11.4848 0 0 0 
62 1 C -2.30131 3.98718 16.0783 0 0 0 
63 1 C 2.30223 3.98718 11.4848 0 0 0 
64 1 C 2.30223 3.98718 16.0783 0 0 0 
65 2 C 0.000460428 5.31611 11.4848 0 0 0 
66 2 C 4.604 2.65825 16.0783 0 0 0 
67 2 C 4.604 2.65825 11.4848 0 0 0 
68 2 C 0.000460428 5.31611 16.0783 0 0 0 
69 3 C 3.03881 0.921574 9.188 0 0 0 
70 3 C 1.56565 7.05279 9.188 0 0 0 
71 3 C 6.8906 2.1711 9.188 0 0 0 
72 3 C -2.28614 5.80326 9.188 0 0 0 
73 3 C 3.88259 4.88209 9.188 0 0 0 
74 3 C 0.721875 3.09228 9.188 0 0 0 
75 3 C -0.720955 3.09227 13.7815 0 0 0 
76 3 C 5.32542 4.88209 13.7815 0 0 0 
77 3 C -1.56473 7.05279 13.7815 0 0 0 
78 3 C 6.16919 0.921574 13.7815 0 0 0 
79 3 C 2.28706 5.80326 13.7815 0 0 0 
80 3 C 2.3174 2.1711 13.7815 0 0 0 
81 4 C 1.75771 1.87379 9.188 0 0 0 
82 4 C 2.84675 6.10058 9.188 0 0 0 
83 4 C 6.70651 0.585528 9.188 0 0 0 
84 4 C -2.10205 7.38883 9.188 0 0 0 
85 4 C 5.34778 5.51545 9.188 0 0 0 
86 4 C -0.743316 2.45891 9.188 0 0 0 
87 4 C 0.744236 2.45891 13.7815 0 0 0 
88 4 C 3.86022 5.51545 13.7815 0 0 0 
89 4 C -2.84583 6.10058 13.7815 0 0 0 
90 4 C 7.45029 1.87379 13.7815 0 0 0 
91 4 C 2.10297 7.38883 13.7815 0 0 0 
92 4 C 2.50149 0.585528 13.7815 0 0 0 
93 4 C 3.92635 1.15726 10.5311 0 0 0 
94 4 C 0.678106 6.81711 17.032 0 0 0 
95 4 C 6.24273 2.82189 10.5311 0 0 0 
96 4 C -1.63826 5.15247 17.032 0 0 0 
97 4 C 3.64292 3.99561 10.5311 0 0 0 
98 4 C 0.96154 3.97875 17.032 0 0 0 
99 4 C 0.678106 6.81711 10.5311 0 0 0 
100 4 C 3.92635 1.15726 17.032 0 0 0 
101 4 C -1.63826 5.15247 10.5311 0 0 0 
102 4 C 6.24273 2.82189 17.032 0 0 0 
103 4 C 0.96154 3.97875 10.5311 0 0 0 
104 4 C 3.64292 3.99561 17.032 0 0 0 
105 4 C -0.960619 3.97875 12.4385 0 0 0 
106 4 C 5.56508 3.99561 15.1246 0 0 0 
107 4 C -0.677185 6.81711 12.4385 0 0 0 
108 4 C 5.28165 1.15726 15.1246 0 0 0 
109 4 C 1.63918 5.15247 12.4385 0 0 0 
110 4 C 2.96528 2.82189 15.1246 0 0 0 
111 4 C 5.56508 3.99561 12.4385 0 0 0 
112 4 C -0.960619 3.97875 15.1246 0 0 0 
113 4 C 5.28165 1.15726 12.4385 0 0 0 
114 4 C -0.677185 6.81711 15.1246 0 0 0 
115 4 C 2.96528 2.82189 12.4385 0 0 0 
116 4 C 1.63918 5.15247 15.1246 0 0 0 
117 6 C 4.71939 7.08157 2.29769 0 0 0 
118 5 C -3.65917 7.57258 2.56652 1 0 0 
119 5 C 4.33037 7.50669 1.48054 0 0 0 
120 6 C 4.71939 7.08157 11.4848 0 0 0 
121 5 C -3.65917 7.57258 11.7536 1 0 0 
122 5 C 4.33037 7.50669 10.6676 0 0 0 
123 6 C 4.71939 7.08157 16.0783 0 0 0 
124 5 C -3.65917 7.57258 16.3471 1 0 0 
125 5 C 4.33037 7.50669 15.2612 0 0 0 
126 6 C 4.71939 7.08157 6.89123 0 0 0 
127 5 C -3.65917 7.57258 7.16006 1 0 0 
128 5 C 4.33037 7.50669 6.07408 0 0 0 
ITEM: TIMESTEP
2
ITEM: NUMBER OF ATOMS
128
ITEM: BOX BOUNDS xy xz yz pp pp pp
-4.6021584000000004e+00 9.2070792000000008e+00 -4.6030792000000007e+00
7.9743620000000007e-04 7.9735645638000010e+00 0.0000000000000000e+00
1.8376000000000004e-03 1.8374162399999999e+01 0.0000000000000000e+00
ITEM: ATOMS id type element x y z ix iy iz 
1 1 C 4.604 0.000797414 2.29838 0 0 0 
2 1 C 4.604 0.000797414 6.89146 0 0 0 
3 1 C -2.30062 3.98718 2.29838 0 0 0 
4 1 C -2.30062 3.98718 6.89146 0 0 0 
5 1 C 2.30246 3.98718 2.29838 0 0 0 
6 1 C 2.30246 3.98718 6.89146 0 0 0 
7 2 C 0.000920856 5.31598 2.29838 0 0 0 
8 2 C 4.604 2.65839 6.89146 0 0 0 
9 2 C 4.604 2.65839 2.29838 0 0 0 
10 2 C 0.000920856 5.31598 6.89146 0 0 0 
11 3 C 3.03897 0.92188 0.00183762 0 0 0 
12 3 C 1.56595 7.05248 0.00183753 0 0 0 
13 3 C 6.89038 2.17128 0.00183757 0 0 0 
14 3 C -2.28545 5.80308 0.00183762 0 0 0 
15 3 C 3.88266 4.882 0.00183753 0 0 0 
16 3 C 0.722264 3.09237 0.00183759 0 0 0 
17 3 C -0.720422 3.09237 4.59492 0 0 0 
18 3 C 5.32534 4.882 4.59492 0 0 0 
19 3 C -1.56411 7.05248 4.59492 0 0 0 
20 3 C 6.16903 0.92188 4.59492 0 0 0 
21 3 C 2.2873 5.80308 4.59492 0 0 0 
22 3 C 2.31763 2.17128 4.59492 0 0 0 
23 4 C 1.75799 1.874 0.0018376 0 0 0 
24 4 C 2.84693 6.10037 0.0018377 0 0 0 
25 4 C 6.7063 0.585869 0.00183765 0 0 0 
26 4 C -2.10138 7.38849 0.00183756 0 0 0 
27 4 C 5.3477 5.51529 0.00183764 0 0 0 
28 4 C -0.742782 2.45907 0.00183762 0 0 0 
29 4 C 0.744622 2.45907 4.59492 0 0 0 
30 4 C 3.8603 5.51529 4.59492 0 0 0 
31 4 C -2.84508 6.10037 4.59492 0 0 0 
32 4 C 7.45001 1.874 4.59492 0 0 0 
33 4 C 2.10322 7.38849 4.59492 0 0 0 
34 4 C 2.5017 0.585868 4.59492 0 0 0 
35 4 C 3.92642 1.15754 1.34477 0 0 0 
36 4 C 0.678498 6.81682 7.84507 0 0 0 
37 4 C 6.24256 2.82201 1.34477 0 0 0 
38 4 C -1.63764 5.15235 7.84507 0 0 0 
39 4 C 3.64302 3.99561 1.34477 0 0 0 
40 4 C 0.961904 3.97875 7.84507 0 0 0 
41 4 C 0.678498 6.81682 1.34477 0 0 0 
42 4 C 3.92642 1.15754 7.84507 0 0 0 
43 4 C -1.63764 5.15235 1.34477 0 0 0 
44 4 C 6.24256 2.82201 7.84507 0 0 0 
45 4 C 0.961904 3.97875 1.34477 0 0 0 
46 4 C 3.64302 3.99561 7.84507 0 0 0 
47 4 C -0.960062 3.97875 3.25199 0 0 0 
48 4 C 5.56498 3.99561 5.93785 0 0 0 
49 4 C -0.676657 6.81682 3.25199 0 0 0 
50 4 C 5.28158 1.15754 5.93785 0 0 0 
51 4 C 1.63948 5.15235 3.25199 0 0 0 
52 4 C 2.96544 2.82201 5.93785 0 0 0 
53 4 C 5.56498 3.99561 3.25199 0 0 0 
54 4 C -0.960062 3.97875 5.93785 0 0 0 
55 4 C 5.28158 1.15754 3.25199 0 0 0 
56 4 C -0.676657 6.81682 5.93785 0 0 0 
57 4 C 2.96544 2.82201 3.25199 0 0 0 
58 4 C 1.63948 5.15235 5.93785 0 0 0 
59 1 C 4.604 0.000797414 11.4845 0 0 0 
60 1 C 4.604 0.000797414 16.0776 0 0 0 
61 1 C -2.30062 3.98718 11.4845 0 0 0 
62 1 C -2.30062 3.98718 16.0776 0 0 0 
63 1 C 2.30246 3.98718 11.4845 0 0 0 
64 1 C 2.30246 3.98718 16.0776 0 0 0 
65 2 C 0.000920856 5.31598 11.4845 0 0 0 
66 2 C 4.604 2.65839 16.0776 0 0 0 
67 2 C 4.604 2.65839 11.4845 0 0 0 
68 2 C 0.000920856 5.31598 16.0776 0 0 0 
69 3 C 3.03897 0.92188 9.188 0 0 0 
70 3 C 1.56595 7.05248 9.188 0 0 0 
71 3 C 6.89038 2.17128 9.188 0 0 0 
72 3 C -2.28545 5.80308 9.188 0 0 0 
73 3 C 3.88266 4.882 9.188 0 0 0 
74 3 C 0.722264 3.09237 9.188 0 0 0 
75 3 C -0.720422 3.09237 13.7811 0 0 0 
76 3 C 5.32534 4.882 13.7811 0 0 0 
77 3 C -1.56411 7.05248 13.7811 0 0 0 
78 3 C 6.16903 0.92188 13.7811 0 0 0 
79 3 C 2.2873 5.80308 13.7811 0 0 0 
80 3 C 2.31763 2.17128 13.7811 0 0 0 
81 4 C 1.75799 1.874 9.188 0 0 0 
82 4 C 2.84693 6.10037 9.188 0 0 0 
83 4 C 6.7063 0.585869 9.188 0 0 0 
84 4 C -2.10138 7.38849 9.188 0 0 0 
85 4 C 5.3477 5.51529 9.188 0 0 0 
86 4 C -0.742782 2.45907 9.188 0 0 0 
87 4 C 0.744622 2.45907 13.7811 0 0 0 
88 4 C 3.8603 5.51529 13.7811 0 0 0 
89 4 C -2.84508 6.10037 13.7811 0 0 0 
90 4 C 7.45001 1.874 13.7811 0 0 0 
91 4 C 2.10322 7.38849 13.7811 0 0 0 
92 4 C 2.5017 0.585868 13.7811 0 0 0 
93 4 C 3.92642 1.15754 10.5309 0 0 0 
94 4 C 0.678498 6.81682 17.0312 0 0 0 
95 4 C 6.24256 2.82201 10.5309 0 0 0 
96 4 C -1.63764 5.15235 17.0312 0 0 0 
97 4 C 3.64302 3.99561 10.5309 0 0 0 
98 4 C 0.961904 3.97875 17.0312 0 0 0 
99 4 C 0.678498 6.81682 10.5309 0 0 0 
100 4 C 3.92642 1.15754 17.0312 0 0 0 
101 4 C -1.63764 5.15235 10.5309 0 0 0 
102 4 C 6.24256 2.82201 17.0312 0 0 0 
103 4 C 0.961904 3.97875 10.5309 0 0 0 
104 4 C 3.64302 3.99561 17.0312 0 0 0 
105 4 C -0.960062 3.97875 12.4381 0 0 0 
106 4 C 5.56498 3.99561 15.124 0 0 0 
107 4 C -0.676657 6.81682 12.4381 0 0 0 
108 4 C 5.28158 1.15754 15.124 0 0 0 
109 4 C 1.63948 5.15235 12.4381 0 0 0 
110 4 C 2.96544 2.82201 15.124 0 0 0 
111 4 C 5.56498 3.99561 12.4381 0 0 0 
112 4 C -0.960062 3.97875 15.124 0 0 0 
113 4 C 5.28158 1.15754 12.4381 0 0 0 
114 4 C -0.676657 6.81682 15.124 0 0 0 
115 4 C 2.96544 2.82201 12.4381 0 0 0 
116 4 C 1.63948 5.15235 15.124 0 0 0 
117 6 C 4.71938 7.08127 2.29838 0 0 0 
118 5 C -3.65835 7.57223 2.56718 1 0 0 
119 5 C 4.33039 7.50634 1.48131 0 0 0 
120 6 C 4.71938 7.08127 11.4845 0 0 0 
121 5 C -3.65835 7.57223 11.7533 1 0 0 
122 5 C 4.33039 7.50634 10.6675 0 0 0 
123 6 C 4.71938 7.08127 16.0776 0 0 0 
124 5 C -3.65835 7.57223 16.3464 1 0 0 
125 5 C 4.33039 7.50634 15.2606 0 0 0 
126 6 C 4.71938 7.08127 6.89146 0 0 0 
127 5 C -3.65835 7.57223 7.16026 1 0 0 
128 5 C 4.33039 7.50634 6.07439 0 0 0 
ITEM: TIMESTEP
3
ITEM: NUMBER OF ATOMS
128
ITEM: BOX BOUNDS xy xz yz pp pp pp
-4.6012376000000010e+00 9.2066188000000011e+00 -4.6026188000000010e+00
1.1961543000000002e-03 7.9731658457000014e+00 0.0000000000000000e+00
2.7564000000000009e-03 1.8373243599999999e+01 0.0000000000000000e+00
ITEM: ATOMS id type element x y z ix iy iz 
1 1 C 4.604 0.00119612 2.29907 0 0 0 
2 1 C 4.604 0.00119612 6.89169 0 0 0 
3 1 C -2.29993 3.98718 2.29907 0 0 0 
4 1 C -2.29993 3.98718 6.89169 0 0 0 
5 1 C 2.30269 3.98718 2.29907 0 0 0 
6 1 C 2.30269 3.98718 6.89169 0 0 0 
7 2 C 0.00138128 5.31584 2.29907 0 0 0 
8 2 C 4.604 2.65852 6.89169 0 0 0 
9 2 C 4.604 2.65852 2.29907 0 0 0 
10 2 C 0.00138128 5.31584 6.89169 0 0 0 
11 3 C 3.03913 0.922187 0.00275643 0 0 0 
12 3 C 1.56626 7.05218 0.0027563 0 0 0 
13 3 C 6.89015 2.17146 0.00275636 0 0 0 
14 3 C -2.28477 5.8029 0.00275642 0 0 0 
15 3 C 3.88273 4.88191 0.00275629 0 0 0 
16 3 C 0.722652 3.09246 0.00275639 0 0 0 
17 3 C -0.71989 3.09246 4.59538 0 0 0 
18 3 C 5.32527 4.88191 4.59538 0 0 0 
19 3 C -1.56349 7.05218 4.59538 0 0 0 
20 3 C 6.16887 0.922187 4.59538 0 0 0 
21 3 C 2.28753 5.8029 4.59538 0 0 0 
22 3 C 2.31786 2.17147 4.59538 0 0 0 
23 4 C 1.75828 1.87421 0.0027564 0 0 0 
24 4 C 2.8471 6.10015 0.00275655 0 0 0 
25 4 C 6.70609 0.586209 0.00275648 0 0 0 
26 4 C -2.10071 7.38815 0.00275634 0 0 0 
27 4 C 5.34763 5.51514 0.00275646 0 0 0 
28 4 C -0.742247 2.45922 0.00275643 0 0 0 
29 4 C 0.745008 2.45922 4.59538 0 0 0 
30 4 C 3.86037 5.51514 4.59538 0 0 0 
31 4 C -2.84434 6.10015 4.59538 0 0 0 
32 4 C 7.44972 1.87421 4.59538 0 0 0 
33 4 C 2.10347 7.38815 4.59538 0 0 0 
34 4 C 2.50191 0.586209 4.59538 0 0 0 
35 4 C 3.92649 1.15782 1.34555 0 0 0 
36 4 C 0.67889 6.81654 7.8452 0 0 0 
37 4 C 6.2424 2.82213 1.34555 0 0 0 
38 4 C -1.63701 5.15224 7.8452 0 0 0 
39 4 C 3.64311 3.99561 1.34555 0 0 0 
40 4 C 0.962268 3.97875 7.8452 0 0 0 
41 4 C 0.67889 6.81654 1.34555 0 0 0 
42 4 C 3.92649 1.15782 7.8452 0 0 0 
43 4 C -1.63701 5.15224 1.34555 0 0 0 
44 4 C 6.2424 2.82213 7.8452 0 0 0 
45 4 C 0.962268 3.97875 1.34555 0 0 0 
46 4 C 3.64311 3.99561 7.8452 0 0 0 
47 4 C -0.959506 3.97875 3.25258 0 0 0 
48 4 C 5.56489 3.99561 5.93818 0 0 0 
49 4 C -0.676128 6.81654 3.25258 0 0 0 
50 4 C 5.28151 1.15782 5.93818 0 0 0 
51 4 C 1.63978 5.15224 3.25258 0 0 0 
52 4 C 2.9656 2.82213 5.93818 0 0 0 
53 4 C 5.56489 3.99561 3.25258 0 0 0 
54 4 C -0.959506 3.97875 5.93818 0 0 0 
55 4 C 5.28151 1.15782 3.25258 0 0 0 
56 4 C -0.676128 6.81654 5.93818 0 0 0 
57 4 C 2.9656 2.82213 3.25258 0 0 0 
58 4 C 1.63978 5.15224 5.93818 0 0 0 
59 1 C 4.604 0.00119612 11.4843 0 0 0 
60 1 C 4.604 0.00119612 16.0769 0 0 0 
61 1 C -2.29993 3.98718 11.4843 0 0 0 
62 1 C -2.29993 3.98718 16.0769 0 0 0 
63 1 C 2.30269 3.98718 11.4843 0 0 0 
64 1 C 2.30269 3.98718 16.0769 0 0 0 
65 2 C 0.00138128 5.31584 11.4843 0 0 0 
66 2 C 4.604 2.65852 16.0769 0 0 0 
67 2 C 4.604 2.65852 11.4843 0 0 0 
68 2 C 0.00138128 5.31584 16.0769 0 0 0 
69 3 C 3.03913 0.922187 9.188 0 0 0 
70 3 C 1.56626 7.05218 9.188 0 0 0 
71 3 C 6.89015 2.17146 9.188 0 0 0 
72 3 C -2.28477 5.8029 9.188 0 0 0 
73 3 C 3.88273 4.88191 9.188 0 0 0 
74 3 C 0.722652 3.09246 9.188 0 0 0 
75 3 C -0.71989 3.09246 13.7806 0 0 0 
76 3 C 5.32527 4.88191 13.7806 0 0 0 
77 3 C -1.56349 7.05218 13.7806 0 0 0 
78 3 C 6.16887 0.922187 13.7806 0 0 0 
79 3 C 2.28753 5.8029 13.7806 0 0 0 
80 3 C 2.31786 2.17147 13.7806 0 0 0 
81 4 C 1.75828 1.87421 9.188 0 0 0 
82 4 C 2.8471 6.10015 9.188 0 0 0 
83 4 C 6.70609 0.586209 9.188 0 0 0 
84 4 C -2.10071 7.38815 9.188 0 0 0 
85 4 C 5.34763 5.51514 9.188 0 0 0 
86 4 C -0.742247 2.45922 9.188 0 0 0 
87 4 C 0.745008 2.45922 13.7806 0 0 0 
88 4 C 3.86037 5.51514 13.7806 0 0 0 
89 4 C -2.84434 6.10015 13.7806 0 0 0 
90 4 C 7.44972 1.87421 13.7806 0 0 0 
91 4 C 2.10347 7.38815 13.7806 0 0 0 
92 4 C 2.50191 0.586209 13.7806 0 0 0 
93 4 C 3.92649 1.15782 10.5308 0 0 0 
94 4 C 0.67889 6.81654 17.0304 0 0 0 
95 4 C 6.2424 2.82213 10.5308 0 0 0 
96 4 C -1.63701 5.15224 17.0304 0 0 0 
97 4 C 3.64311 3.99561 10.5308 0 0 0 
98 4 C 0.962268 3.97875 17.0304 0 0 0 
99 4 C 0.67889 6.81654 10.5308 0 0 0 
100 4 C 3.92649 1.15782 17.0304 0 0 0 
101 4 C -1.63701 5.15224 10.5308 0 0 0 
102 4 C 6.2424 2.82213 17.0304 0 0 0 
103 4 C 0.962268 3.97875 10.5308 0 0 0 
104 4 C 3.64311 3.99561 17.0304 0 0 0 
105 4 C -0.959506 3.97875 12.4378 0 0 0 
106 4 C 5.56489 3.99561 15.1234 0 0 0 
107 4 C -0.676128 6.81654 12.4378 0 0 0 
108 4 C 5.28151 1.15782 15.1234 0 0 0 
109 4 C 1.63978 5.15224 12.4378 0 0 0 
110 4 C 2.9656 2.82213 15.1234 0 0 0 
111 4 C 5.56489 3.99561 12.4378 0 0 0 
112 4 C -0.959506 3.97875 15.1234 0 0 0 
113 4 C 5.28151 1.15782 12.4378 0 0 0 
114 4 C -0.676128 6.81654 15.1234 0 0 0 
115 4 C 2.9656 2.82213 12.4378 0 0 0 
116 4 C 1.63978 5.15224 15.1234 0 0 0 
117 6 C 4.71936 7.08096 2.29907 0 0 0 
118 5 C -3.65752 7.57187 2.56784 1 0 0 
119 5 C 4.33042 7.50599 1.48208 0 0 0 
120 6 C 4.71936 7.08096 11.4843 0 0 0 
121 5 C -3.65752 7.57187 11.7531 1 0 0 
122 5 C 4.33042 7.50599 10.6673 0 0 0 
123 6 C 4.71936 7.08096 16.0769 0 0 0 
124 5 C -3.65752 7.57187 16.3457 1 0 0 
125 5 C 4.33042 7.50599 15.2599 0 0 0 
126 6 C 4.71936 7.08096 6.89169 0 0 0 
127 5 C -3.65752 7.57187 7.16046 1 0 0 
128 5 C 4.33042 7.50599 6.0747 0 0 0 
ITEM: TIMESTEP
4
ITEM: NUMBER OF ATOMS
128
ITEM: BOX BOUNDS xy xz yz pp pp pp
-4.6003168000000016e+00 9.2061584000000014e+00 -4.6021584000000013e+00
1.5948724000000001e-03 7.9727671276000018e+00 0.0000000000000000e+00
3.6752000000000009e-03 1.8372324799999998e+01 0.0000000000000000e+00
ITEM: ATOMS id type element x y z ix iy iz 
1 1 C 4.604 0.00159483 2.29976 0 0 0 
2 1 C 4.604 0.00159483 6.89192 0 0 0 
3 1 C -2.29924 3.98718 2.29976 0 0 0 
4 1 C -2.29924 3.98718 6.89192 0 0 0 
5 1 C 2.30292 3.98718 2.29976 0 0 0 
6 1 C 2.30292 3.98718 6.89192 0 0 0 
7 2 C 0.00184171 5.31571 2.29976 0 0 0 
8 2 C 4.604 2.65865 6.89192 0 0 0 
9 2 C 4.604 2.65865 2.29976 0 0 0 
10 2 C 0.00184171 5.31571 6.89192 0 0 0 
11 3 C 3.03928 0.922494 0.00367524 0 0 0 
12 3 C 1.56656 7.05187 0.00367507 0 0 0 
13 3 C 6.88992 2.17165 0.00367514 0 0 0 
14 3 C -2.28408 5.80272 0.00367523 0 0 0 
15 3 C 3.8828 4.88182 0.00367506 0 0 0 
16 3 C 0.723041 3.09255 0.00367518 0 0 0 
17 3 C -0.719357 3.09255 4.59584 0 0 0 
18 3 C 5.3252 4.88182 4.59584 0 0 0 
19 3 C -1.56288 7.05187 4.59584 0 0 0 
20 3 C 6.16872 0.922494 4.59584 0 0 0 
21 3 C 2.28776 5.80272 4.59584 0 0 0 
22 3 C 2.31808 2.17165 4.59584 0 0 0 
23 4 C 1.75856 1.87442 0.0036752 0 0 0 
24 4 C 2.84728 6.09994 0.00367539 0 0 0 
25 4 C 6.70588 0.586549 0.0036753 0 0 0 
26 4 C -2.10004 7.38781 0.00367512 0 0 0 
27 4 C 5.34755 5.51499 0.00367528 0 0 0 
28 4 C -0.741712 2.45937 0.00367524 0 0 0 
29 4 C 0.745394 2.45937 4.59584 0 0 0 
30 4 C 3.86045 5.51499 4.59584 0 0 0 
31 4 C -2.84359 6.09994 4.59584 0 0 0 
32 4 C 7.44944 1.87442 4.59584 0 0 0 
33 4 C 2.10372 7.38781 4.59584 0 0 0 
34 4 C 2.50212 0.586549 4.59584 0 0 0 
35 4 C 3.92656 1.1581 1.34634 0 0 0 
36 4 C 0.679283 6.81626 7.84534 0 0 0 
37 4 C 6.24223 2.82224 1.34634 0 0 0 
38 4 C -1.63639 5.15212 7.84534 0 0 0 
39 4 C 3.64321 3.99561 1.34634 0 0 0 
40 4 C 0.962633 3.97875 7.84534 0 0 0 
41 4 C 0.679283 6.81626 1.34634 0 0 0 
42 4 C 3.92656 1.1581 7.84534 0 0 0 
43 4 C -1.63639 5.15212 1.34634 0 0 0 
44 4 C 6.24223 2.82224 7.84534 0 0 0 
45 4 C 0.962633 3.97875 1.34634 0 0 0 
46 4 C 3.64321 3.99561 7.84534 0 0 0 
47 4 C -0.95895 3.97875 3.25317 0 0 0 
48 4 C 5.56479 3.99561 5.9385 0 0 0 
49 4 C -0.6756 6.81626 3.25317 0 0 0 
50 4 C 5.28144 1.1581 5.9385 0 0 0 
51 4 C 1.64007 5.15212 3.25317 0 0 0 
52 4 C 2.96577 2.82224 5.9385 0 0 0 
53 4 C 5.56479 3.99561 3.25317 0 0 0 
54 4 C -0.95895 3.97875 5.9385 0 0 0 
55 4 C 5.28144 1.1581 3.25317 0 0 0 
56 4 C -0.6756 6.81626 5.9385 0 0 0 
57 4 C 2.96577 2.82224 3.25317 0 0 0 
58 4 C 1.64007 5.15212 5.9385 0 0 0 
59 1 C 4.604 0.00159483 11.4841 0 0 0 
60 1 C 4.604 0.00159483 16.0762 0 0 0 
61 1 C -2.29924 3.98718 11.4841 0 0 0 
62 1 C -2.29924 3.98718 16.0762 0 0 0 
63 1 C 2.30292 3.98718 11.4841 0 0 0 
64 1 C 2.30292 3.98718 16.0762 0 0 0 
65 2 C 0.00184171 5.31571 11.4841 0 0 0 
66 2 C 4.604 2.65865 16.0762 0 0 0 
67 2 C 4.604 2.65865 11.4841 0 0 0 
68 2 C 0.00184171 5.31571 16.0762 0 0 0 
69 3 C 3.03928 0.922494 9.188 0 0 0 
70 3 C 1.56656 7.05187 9.188 0 0 0 
71 3 C 6.88992 2.17165 9.188 0 0 0 
72 3 C -2.28408 5.80272 9.188 0 0 0 
73 3 C 3.8828 4.88182 9.188 0 0 0 
74 3 C 0.723041 3.09255 9.188 0 0 0 
75 3 C -0.719357 3.09255 13.7802 0 0 0 
76 3 C 5.3252 4.88182 13.7802 0 0 0 
77 3 C -1.56288 7.05187 13.7802 0 0 0 
78 3 C 6.16872 0.922494 13.7802 0 0 0 
79 3 C 2.28776 5.80272 13.7802 0 0 0 
80 3 C 2.31808 2.17165 13.7802 0 0 0 
81 4 C 1.75856 1.87442 9.188 0 0 0 
82 4 C 2.84728 6.09994 9.188 0 0 0 
83 4 C 6.70588 0.586549 9.188 0 0 0 
84 4 C -2.10004 7.38781 9.188 0 0 0 
85 4 C 5.34755 5.51499 9.188 0 0 0 
86 4 C -0.741712 2.45937 9.188 0 0 0 
87 4 C 0.745394 2.45937 13.7802 0 0 0 
88 4 C 3.86045 5.51499 13.7802 0 0 0 
89 4 C -2.84359 6.09994 13.7802 0 0 0 
90 4 C 7.44944 1.87442 13.7802 0 0 0 
91 4 C 2.10372 7.38781 13.7802 0 0 0 
92 4 C 2.50212 0.586549 13.7802 0 0 0 
93 4 C 3.92656 1.1581 10.5307 0 0 0 
94 4 C 0.679283 6.81626 17.0297 0 0 0 
95 4 C 6.24223 2.82224 10.5307 0 0 0 
96 4 C -1.63639 5.15212 17.0297 0 0 0 
97 4 C 3.64321 3.99561 10.5307 0 0 0 
98 4 C 0.962633 3.97875 17.0297 0 0 0 
99 4 C 0.679283 6.81626 10.5307 0 0 0 
100 4 C 3.92656 1.1581 17.0297 0 0 0 
101 4 C -1.63639 5.15212 10.5307 0 0 0 
102 4 C 6.24223 2.82224 17.0297 0 0 0 
103 4 C 0.962633 3.97875 10.5307 0 0 0 
104 4 C 3.64321 3.99561 17.0297 0 0 0 
105 4 C -0.95895 3.97875 12.4375 0 0 0 
106 4 C 5.56479 3.99561 15.1228 0 0 0 
107 4 C -0.6756 6.81626 12.4375 0 0 0 
108 4 C 5.28144 1.1581 15.1228 0 0 0 
109 4 C 1.64007 5.15212 12.4375 0 0 0 
110 4 C 2.96577 2.82224 15.1228 0 0 0 
111 4 C 5.56479 3.99561 12.4375 0 0 0 
112 4 C -0.95895 3.97875 15.1228 0 0 0 
113 4 C 5.28144 1.1581 12.4375 0 0 0 
114 4 C -0.6756 6.81626 15.1228 0 0 0 
115 4 C 2.96577 2.82224 12.4375 0 0 0 
116 4 C 1.64007 5.15212 15.1228 0 0 0 
117 6 C 4.71935 7.08065 2.29976 0 0 0 
118 5 C -3.65669 7.57151 2.5685 1 0 0 
119 5 C 4.33045 7.50564 1.48285 0 0 0 
120 6 C 4.71935 7.08065 11.4841 0 0 0 
121 5 C -3.65669 7.57151 11.7528 1 0 0 
122 5 C 4.33045 7.50564 10.6672 0 0 0 
123 6 C 4.71935 7.08065 16.0762 0 0 0 
124 5 C -3.65669 7.57151 16.345 1 0 0 
125 5 C 4.33045 7.50564 15.2593 0 0 0 
126 6 C 4.71935 7.08065 6.89192 0 0 0 
127 5 C -3.65669 7.57151 7.16066 1 0 0 
128 5 C 4.33045 7.50564 6.07501 0 0 0 
ITEM: TIMESTEP
5
ITEM: NUMBER OF ATOMS
128
ITEM: BOX BOUNDS xy xz yz pp pp pp
-4.5993960000000005e+00 9.2056980000000017e+00 -4.6016980000000007e+00
1.9935905000000001e-03 7.9723684095000023e+00 0.0000000000000000e+00
4.5940000000000009e-03 1.8371405999999997e+01 0.0000000000000000e+00
ITEM: ATOMS id type element x y z ix iy iz 
1 1 C 4.604 0.00199354 2.30045 0 0 0 
2 1 C 4.604 0.00199354 6.89215 0 0 0 
3 1 C -2.29855 3.98718 2.30045 0 0 0 
4 1 C -2.29855 3.98718 6.89215 0 0 0 
5 1 C 2.30315 3.98718 2.30045 0 0 0 
6 1 C 2.30315 3.98718 6.89215 0 0 0 
7 2 C 0.00230214 5.31558 2.30045 0 0 0 
8 2 C 4.604 2.65879 6.89215 0 0 0 
9 2 C 4.604 2.65879 2.30045 0 0 0 
10 2 C 0.00230214 5.31558 6.89215 0 0 0 
11 3 C 3.03944 0.922801 0.00459405 0 0 0 
12 3 C 1.56686 7.05156 0.00459383 0 0 0 
13 3 C 6.88969 2.17183 0.00459393 0 0 0 
14 3 C -2.28339 5.80253 0.00459404 0 0 0 
15 3 C 3.88287 4.88173 0.00459382 0 0 0 
16 3 C 0.723429 3.09264 0.00459398 0 0 0 
17 3 C -0.718825 3.09264 4.5963 0 0 0 
18 3 C 5.32513 4.88173 4.5963 0 0 0 
19 3 C -1.56226 7.05156 4.5963 0 0 0 
20 3 C 6.16856 0.922801 4.5963 0 0 0 
21 3 C 2.28799 5.80253 4.5963 0 0 0 
22 3 C 2.31831 2.17183 4.5963 0 0 0 
23 4 C 1.75885 1.87463 0.004594 0 0 0 
24 4 C 2.84745 6.09973 0.00459424 0 0 0 
25 4 C 6.70567 0.586889 0.00459413 0 0 0 
26 4 C -2.09937 7.38747 0.00459391 0 0 0 
27 4 C 5.34748 5.51484 0.0045941 0 0 0 
28 4 C -0.741177 2.45953 0.00459405 0 0 0 
29 4 C 0.74578 2.45953 4.5963 0 0 0 
30 4 C 3.86052 5.51484 4.5963 0 0 0 
31 4 C -2.84285 6.09973 4.5963 0 0 0 
32 4 C 7.44915 1.87463 4.5963 0 0 0 
33 4 C 2.10397 7.38747 4.5963 0 0 0 
34 4 C 2.50233 0.586889 4.5963 0 0 0 
35 4 C 3.92663 1.15839 1.34712 0 0 0 
36 4 C 0.679675 6.81597 7.84547 0 0 0 
37 4 C 6.24207 2.82236 1.34712 0 0 0 
38 4 C -1.63577 5.152 7.84547 0 0 0 
39 4 C 3.64331 3.99561 1.34712 0 0 0 
40 4 C 0.962997 3.97876 7.84547 0 0 0 
41 4 C 0.679675 6.81597 1.34712 0 0 0 
42 4 C 3.92663 1.15839 7.84547 0 0 0 
43 4 C -1.63577 5.152 1.34712 0 0 0 
44 4 C 6.24207 2.82236 7.84547 0 0 0 
45 4 C 0.962997 3.97876 1.34712 0 0 0 
46 4 C 3.64331 3.99561 7.84547 0 0 0 
47 4 C -0.958393 3.97876 3.25377 0 0 0 
48 4 C 5.5647 3.99561 5.93883 0 0 0 
49 4 C -0.675072 6.81597 3.25377 0 0 0 
50 4 C 5.28137 1.15839 5.93883 0 0 0 
51 4 C 1.64037 5.152 3.25377 0 0 0 
52 4 C 2.96593 2.82236 5.93883 0 0 0 
53 4 C 5.5647 3.99561 3.25377 0 0 0 
54 4 C -0.958393 3.97876 5.93883 0 0 0 
55 4 C 5.28137 1.15839 3.25377 0 0 0 
56 4 C -0.675072 6.81597 5.93883 0 0 0 
57 4 C 2.96593 2.82236 3.25377 0 0 0 
58 4 C 1.64037 5.152 5.93883 0 0 0 
59 1 C 4.604 0.00199354 11.4839 0 0 0 
60 1 C 4.604 0.00199354 16.0756 0 0 0 
61 1 C -2.29855 3.98718 11.4839 0 0 0 
62 1 C -2.29855 3.98718 16.0756 0 0 0 
63 1 C 2.30315 3.98718 11.4839 0 0 0 
64 1 C 2.30315 3.98718 16.0756 0 0 0 
65 2 C 0.00230214 5.31558 11.4839 0 0 0 
66 2 C 4.604 2.65879 16.0756 0 0 0 
67 2 C 4.604 2.65879 11.4839 0 0 0 
68 2 C 0.00230214 5.31558 16.0756 0 0 0 
69 3 C 3.03944 0.922801 9.188 0 0 0 
70 3 C 1.56686 7.05156 9.188 0 0 0 
71 3 C 6.88969 2.17183 9.188 0 0 0 
72 3 C -2.28339 5.80253 9.188 0 0 0 
73 3 C 3.88287 4.88173 9.188 0 0 0 
74 3 C 0.723429 3.09264 9.188 0 0 0 
75 3 C -0.718825 3.09264 13.7797 0 0 0 
76 3 C 5.32513 4.88173 13.7797 0 0 0 
77 3 C -1.56226 7.05156 13.7797 0 0 0 
78 3 C 6.16856 0.922801 13.7797 0 0 0 
79 3 C 2.28799 5.80253 13.7797 0 0 0 
80 3 C 2.31831 2.17183 13.7797 0 0 0 
81 4 C 1.75885 1.87463 9.188 0 0 0 
82 4 C 2.84745 6.09973 9.188 0 0 0 
83 4 C 6.70567 0.586889 9.188 0 0 0 
84 4 C -2.09937 7.38747 9.188 0 0 0 
85 4 C 5.34748 5.51484 9.188 0 0 0 
86 4 C -0.741177 2.45953 9.188 0 0 0 
87 4 C 0.74578 2.45953 13.7797 0 0 0 
88 4 C 3.86052 5.51484 13.7797 0 0 0 
89 4 C -2.84285 6.09973 13.7797 0 0 0 
90 4 C 7.44915 1.87463 13.7797 0 0 0 
91 4 C 2.10397 7.38747 13.7797 0 0 0 
92 4 C 2.50233 0.586889 13.7797 0 0 0 