LAMMPS (22 Aug 2018)
  using 1 OpenMP thread(s) per MPI task
#nimud floating point parameter in input script or data file (../fix_nh.cpp:132)energy for Beryl

#----- Initialize Simulation -----
clear
  using 1 OpenMP thread(s) per MPI task
units           metal
boundary        p p p
atom_style      full
bond_style      none
variable        probeTemp equal 10

#----- Create Atoms -----
read_data       mod/beryl.xyz
  triclinic box = (0 0 0) to (9.208 7.97436 18.376) with tilt (-4.604 0 0)
  1 by 1 by 4 MPI processor grid
  reading atoms ...
  116 atoms
  0 = max # of 1-2 neighbors
  0 = max # of 1-3 neighbors
  0 = max # of 1-4 neighbors
  1 = max # of special neighbors
replicate       8 8 2
  triclinic box = (0 0 0) to (73.664 63.7949 36.752) with tilt (-36.832 0 0)
  2 by 2 by 1 MPI processor grid
  14848 atoms
  0 = max # of 1-2 neighbors
  0 = max # of 1-3 neighbors
  0 = max # of 1-4 neighbors
  1 = max # of special neighbors
  Time spent = 0.00739356 secs

#----- Define Interatomic Potential -----
include         mod/potential_main.mod
kspace_style 	pppm 1.0e-4

# Neighbor Style
neighbor	2.0 bin
neigh_modify	delay 0 every 1 check yes

# Setup Output
thermo_style	custom	step temp vol cella cellb cellc cellgamma pxx pyy pzz pxy pxz pyz lx ly lz press pe #c_eatoms
thermo_modify	norm no
variable 	myVol equal vol
variable	myCella equal cella
variable	myCellb equal cellb
variable	myCellc equal cellc
variable	myCellgamma equal cellgamma
include         mod/potential_beryl.mod
# Potential Paramters
pair_style 	hybrid/overlay morse 5.5 buck 5.5 lj/cut/coul/long 5.5 15.0
pair_coeff    1    1 morse     		  0 	       0           0  # Be Be
pair_coeff    1    1 buck                 0            1           -201.0
pair_coeff    1    1 lj/cut/coul/long	  10120.	0.413
pair_coeff    1    2 morse     		  0 	       0           0  # Be Al
pair_coeff    1    2 buck                 0            1           0
pair_coeff    1    2 lj/cut/coul/long	  0	       0
pair_coeff    1    3 morse     		  0 	       0           0  # Al Si
pair_coeff    1    3 buck                 0            1           0
pair_coeff    1    3 lj/cut/coul/long	  0	       0
pair_coeff    1    4 morse 		  0.239919     2.527420    1.815405	#Be O
pair_coeff    1    4 buck                 0.000000     1.000000   -46.00000
pair_coeff    1    4 lj/cut/coul/long     529.000      0.528
pair_coeff    2    2 morse     		  0 	       0           0  # Al Al
pair_coeff    2    2 buck                 0            1           -492.
pair_coeff    2    2 lj/cut/coul/long	  60423		0.356
pair_coeff    2    3 morse     		  0 	       0           0  # Al si
pair_coeff    2    3 buck                 0            1           0
pair_coeff    2    3 lj/cut/coul/long	  0	       0
pair_coeff    2    4 morse 		  0.361581     1.900442    2.164818	#Al O
pair_coeff    2    4 buck                 0.000000     1.000000   -71.5
pair_coeff    2    4 lj/cut/coul/long     1420.0	0.482
pair_coeff    3    3 morse     		  0 	       0           0  # Si Si
pair_coeff    3    3 buck                 0            1           -282.
pair_coeff    3    3 lj/cut/coul/long	  19730		0.391
pair_coeff    3    4 morse 		  0.340554     2.006700    2.100000	#Si O
pair_coeff    3    4 buck                 0.000000     1.000000   -60.5
pair_coeff    3    4 lj/cut/coul/long     916.		0.504
pair_coeff    4    4 morse     		  0.042395     1.379316    3.618701  # O O
pair_coeff    4    4 buck                 0.000000     1.000000   -16.7
pair_coeff    4    4 lj/cut/coul/long	  3.16		1.05
#------ Define Settings -----

# ----- Run Minimization -----
reset_timestep  0
timestep        0.001
velocity        all create ${probeTemp} 87287 loop geom
velocity        all create 10 87287 loop geom
fix             1 all npt temp ${probeTemp} ${probeTemp} 0.1 iso 1.013 1.013 5.0
fix             1 all npt temp 10 ${probeTemp} 0.1 iso 1.013 1.013 5.0
fix             1 all npt temp 10 10 0.1 iso 1.013 1.013 5.0

run             14000 # Warmup
PPPM initialization ...
WARNING: System is not charge neutral, net charge = -0.2048 (../kspace.cpp:302)
  using 12-bit tables for long-range coulomb (../kspace.cpp:321)
  G vector (1/distance) = 0.201681
  grid = 36 50 24
  stencil order = 5
  estimated absolute RMS force accuracy = 0.00105653
  estimated relative force accuracy = 7.33721e-05
  using double precision FFTs
  3d grid and FFT values/proc = 24800 10800
Neighbor list info ...
  update every 1 steps, delay 0 steps, check yes
  max neighbors/atom: 2000, page size: 100000
  master list distance cutoff = 17
  ghost atom cutoff = 17
  binsize = 8.5, bins = 13 8 5
  3 neighbor lists, perpetual/occasional/extra = 3 0 0
  (1) pair morse, perpetual
      attributes: half, newton on
      pair build: half/bin/newton/tri
      stencil: half/bin/3d/newton/tri
      bin: standard
  (2) pair buck, perpetual, copy from (1)
      attributes: half, newton on
      pair build: copy
      stencil: none
      bin: none
  (3) pair lj/cut/coul/long, perpetual, copy from (1)
      attributes: half, newton on
      pair build: copy
      stencil: none
      bin: none
Per MPI rank memory allocation (min/avg/max) = 54.16 | 54.16 | 54.16 Mbytes
Step Temp Volume Cella Cellb Cellc CellGamma Pxx Pyy Pzz Pxy Pxz Pyz Lx Ly Lz Press PotEng 
       0           10    172711.88       73.664    73.664001       36.752          120   -204217.99   -204209.08   -275754.38    1.0250408   0.54269768   0.23015431       73.664    63.794896       36.752   -228060.48   -308813.26 
   14000    10.153205    163041.33    72.262636    72.262636     36.05284          120    16247.415    16734.176   -32660.994   -179.85673   -4625.0827    453.04596    72.262636    62.581279     36.05284    106.86597   -311843.59 
Loop time of 3411.6 on 4 procs for 14000 steps with 14848 atoms

Performance: 0.355 ns/day, 67.691 hours/ns, 4.104 timesteps/s
99.4% CPU use with 4 MPI tasks x 1 OpenMP threads

MPI task timing breakdown:
Section |  min time  |  avg time  |  max time  |%varavg| %total
---------------------------------------------------------------
Pair    | 3059.1     | 3141.5     | 3181.8     |  88.5 | 92.08
Bond    | 0.005153   | 0.0058669  | 0.0066381  |   0.8 |  0.00
Kspace  | 162.84     | 203.08     | 285.5      | 348.2 |  5.95
Neigh   | 3.8483     | 3.8956     | 4.0012     |   3.1 |  0.11
Comm    | 8.6035     | 8.6481     | 8.713      |   1.4 |  0.25
Output  | 0.00012787 | 0.00014047 | 0.00017769 |   0.0 |  0.00
Modify  | 50.934     | 51.679     | 52.29      |   6.7 |  1.51
Other   |            | 2.774      |            |       |  0.08

Nlocal:    3712 ave 3716 max 3707 min
Histogram: 1 0 0 0 1 0 0 1 0 1
Nghost:    26903 ave 26915 max 26885 min
Histogram: 1 0 0 0 0 1 0 0 0 2
Neighs:    3.46595e+06 ave 3.47208e+06 max 3.46228e+06 min
Histogram: 1 1 0 1 0 0 0 0 0 1

Total # of neighbors = 13863781
Ave neighs/atom = 933.714
Ave special neighs/atom = 0
Neighbor list builds = 16
Dangerous builds = 0
reset_timestep  0
fix             2 all ave/time 1 1 50 c_thermo_temp c_thermo_pe c_thermo_press v_myVol v_myCella v_myCellb v_myCellc v_myCellgamma file data/current_run/cp_rawTemp${probeTemp}.dat # Potential energy, parameters, volume
fix             2 all ave/time 1 1 50 c_thermo_temp c_thermo_pe c_thermo_press v_myVol v_myCella v_myCellb v_myCellc v_myCellgamma file data/current_run/cp_rawTemp10.dat 
run             500000
PPPM initialization ...
  using 12-bit tables for long-range coulomb (../kspace.cpp:321)
  G vector (1/distance) = 0.202623
  grid = 36 50 24
  stencil order = 5
  estimated absolute RMS force accuracy = 0.000996501
  estimated relative force accuracy = 6.92032e-05
  using double precision FFTs
  3d grid and FFT values/proc = 24800 10800
Per MPI rank memory allocation (min/avg/max) = 57.63 | 57.63 | 57.63 Mbytes
Step Temp Volume Cella Cellb Cellc CellGamma Pxx Pyy Pzz Pxy Pxz Pyz Lx Ly Lz Press PotEng 
       0    10.153205    163041.33    72.262636    72.262636     36.05284          120    16260.281    16747.748   -32652.992   -179.84091   -4624.9355    453.08398    72.262636    62.581279     36.05284    118.34544    -311843.4 
  500000    9.9567573    163069.73    72.266831    72.266831    36.054933          120    16389.887    16564.083   -32518.264   -226.41466    -4633.228    448.05318    72.266831    62.584912    36.054933    145.23536   -311843.49 
Loop time of 68473.6 on 4 procs for 500000 steps with 14848 atoms

Performance: 0.631 ns/day, 38.041 hours/ns, 7.302 timesteps/s
99.8% CPU use with 4 MPI tasks x 1 OpenMP threads

MPI task timing breakdown:
Section |  min time  |  avg time  |  max time  |%varavg| %total
---------------------------------------------------------------
Pair    | 62702      | 63267      | 63736      | 187.7 | 92.40
Bond    | 0.12196    | 0.14406    | 0.1806     |   6.4 |  0.00
Kspace  | 3335.6     | 3800.4     | 4362.1     | 761.1 |  5.55
Neigh   | 0          | 0          | 0          |   0.0 |  0.00
Comm    | 209.85     | 212.4      | 214.64     |  12.2 |  0.31
Output  | 9.8926e-05 | 0.00010065 | 0.00010164 |   0.0 |  0.00
Modify  | 1120.7     | 1139.1     | 1154.7     |  35.9 |  1.66
Other   |            | 54.51      |            |       |  0.08

Nlocal:    3712 ave 3716 max 3707 min
Histogram: 1 0 0 0 1 0 0 1 0 1
Nghost:    26903.5 ave 26919 max 26882 min
Histogram: 1 0 0 1 0 0 0 0 0 2
Neighs:    3.46679e+06 ave 3.47114e+06 max 3.46324e+06 min
Histogram: 1 1 0 0 0 0 1 0 0 1

Total # of neighbors = 13867147
Ave neighs/atom = 933.94
Ave special neighs/atom = 0
Neighbor list builds = 0
Dangerous builds = 0
unfix           2
variable        probeTemp delete

Total wall time: 19:58:06
167   -311707.48 
     850    61.958567    162880.08    72.238806    72.238806    36.040951          120    16648.718    17820.026   -32850.966    214.56621    -1269.043    1065.0469    72.238806    62.560641    36.040951    539.25961   -311718.52 
     900    57.495739    162889.09    72.240136    72.240137    36.041614          120    16175.833    17396.634    -34197.02    344.16532    -1215.089    1489.8678    72.240136    62.561794    36.041614   -208.18414   -311726.22 
     950    53.971275    162886.44    72.239745    72.239746    36.041419          120    15973.774    17411.361   -33040.705   -214.45785   -944.46188    1206.1219    72.239745    62.561455    36.041419    114.81002   -311732.37 
    1000    52.746735    162884.24     72.23942    72.239421    36.041257          120    15824.419    17651.642   -33413.751     89.92402   -827.51031    1019.0847     72.23942    62.561173    36.041257    20.769998   -311738.72 
    1050    51.818174    162886.47     72.23975    72.239751    36.041422          120    16205.953    17557.004   -33292.794     245.3271   -606.73645    1159.5118     72.23975    62.561459    36.041422    156.72097   -311743.56 
    1100    51.543378    162894.24    72.240898    72.240899    36.041995          120     16649.09    17490.928   -33128.814   -131.73803   -726.26301      1126.09    72.240898    62.562454    36.041995    337.06796   -311744.47 
    1150    51.544141       162905    72.242488    72.242489    36.042788          120     16120.72    16959.909   -33598.665    303.53808   -615.08004    2034.6695    72.242488    62.563831    36.042788   -172.67883   -311744.57 
    1200    52.834117    162906.01    72.242637    72.242638    36.042862          120    16065.404    16898.871   -33727.962     278.9848   -198.06728    1895.3355    72.242637     62.56396    36.042862   -254.56239   -311743.04 
    1250    55.031918    162906.43      72.2427      72.2427    36.042893          120    16374.268    17680.038   -34159.242    518.26253   -358.46353    2074.7975      72.2427    62.564014    36.042893   -34.978735   -311741.87 
    1300    56.077329    162909.24    72.243116    72.243116    36.043101          120    16462.747    18459.748   -33513.923     480.0782   -519.11937    1938.4215    72.243116    62.564374    36.043101    469.52393   -311739.08 
    1350    57.065158    162927.27     72.24578    72.245781     36.04443          120    16215.068    17418.535   -34125.187    398.43528   -312.41828    1699.2488     72.24578    62.566681     36.04443   -163.86109   -311737.46 
    1400    57.955342    162949.56    72.249074    72.249075    36.046074          120    16543.462    18062.471   -33539.047     587.3858   -683.46308    1841.5238    72.249074    62.569535    36.046074    355.62871   -311738.17 
    1450    58.264941    162972.36    72.252445    72.252446    36.047756          120    16164.029    17711.037   -33567.193    208.16225   -369.57036     1377.389    72.252445    62.572454    36.047756    102.62442   -311740.23 
    1500     57.77599    162991.49    72.255271    72.255271    36.049165          120    16293.118    17878.689   -33533.123     279.9089   -650.62947    1423.8907    72.255271    62.574901    36.049165     212.8947   -311743.14 
    1550    55.753238    163019.63    72.259429     72.25943     36.05124          120    16194.119    18216.461    -33633.63    516.01599   -104.09451    1883.7145    72.259429    62.578502     36.05124    258.98337   -311745.56 
    1600    55.059656     163047.2    72.263503    72.263503    36.053272          120    16034.169    18151.311   -33955.292     340.0877    -309.3324    1530.1899    72.263503     62.58203    36.053272    76.729286   -311750.95 
    1650    53.481493     163067.3    72.266473    72.266473    36.054754          120    16143.032    17729.624    -34643.29   -38.186914    309.10462    1665.9992    72.266473    62.584602    36.054754    -256.8781   -311753.17 
    1700    53.062927    163072.11    72.267183    72.267183    36.055108          120    16007.711    17579.959   -33817.136    209.38648   -138.78485    1816.5471    72.267183    62.585217    36.055108   -76.488563   -311756.31 
    1750    52.005912    163067.08     72.26644    72.266441    36.054738          120    15846.507    17972.198   -33792.514     593.2071   -506.06964    1183.9697     72.26644    62.584574    36.054738    8.7304357   -311755.59 
    1800    53.052966    163058.29    72.265142    72.265142     36.05409          120    16353.393    17250.945    -34146.17    623.24895    188.39397    1744.9638    72.265142    62.583449     36.05409   -180.61079    -311757.3 
    1850    53.919797    163050.92    72.264052    72.264053    36.053546          120     16329.75     17608.26    -33935.91   -201.60212   -561.31834    922.80961    72.264052    62.582506    36.053546   0.70019491   -311755.38 
    1900    55.296233    163044.44    72.263095    72.263096    36.053069          120    15646.563    17573.618   -33831.605   -19.656385    74.615582    1396.7053    72.263095    62.581677    36.053069   -203.80803    -311753.5 
    1950    56.052309    163034.05     72.26156     72.26156    36.052303          120     16149.48    17511.134   -33661.738    80.953556   -372.48468    532.86676     72.26156    62.580347    36.052303  -0.37484042   -311750.64 
    2000    57.290655    163029.57    72.260898    72.260899    36.051973          120    16272.845    17144.286   -33465.092    338.79022   -843.37044    1437.8505    72.260898    62.579774    36.051973   -15.987268   -311749.76 
    2050    57.813158    163030.58    72.261047    72.261048    36.052047          120    16788.127    18124.634    -33015.96    238.96627   -258.72244    902.10228    72.261047    62.579903    36.052047    632.26716   -311749.56 
    2100    57.291613    163064.57    72.266069    72.266069    36.054553          120    16629.524    17956.195   -34276.667    120.48369   -597.88381    933.23072    72.266069    62.584252    36.054553    103.01737   -311750.24 
    2150    56.601551    163109.46      72.2727      72.2727    36.057861          120    16192.971    17568.305   -34183.239    227.55471   -305.74288    1277.6795      72.2727    62.589995    36.057861    -140.6541   -311752.06 
    2200    54.708765    163137.06    72.276776    72.276777    36.059895          120    15749.108    17278.519   -34171.806    13.503637   -287.24242    1042.5365    72.276776    62.593525    36.059895   -381.39305   -311753.68 
    2250    53.889859    163140.35    72.277263    72.277263    36.060137          120    15514.427     16690.43   -34602.166    375.21929   -344.11625    710.47265    72.277263    62.593946    36.060137   -799.10297   -311755.68 
    2300    53.523006    163117.77    72.273927    72.273928    36.058473          120    15802.286    17955.966   -34044.158     259.6407   -267.89988    774.80405    72.273927    62.591058    36.058473   -95.301942   -311759.26 
    2350    52.466768    163097.77    72.270973    72.270974    36.056999          120    16461.459    18197.508   -33893.823    342.25356   -344.90968    1242.9166    72.270973    62.588499    36.056999    255.04824   -311759.42 
    2400    53.107635     163095.7    72.270667    72.270668    36.056847          120    15967.685    17661.548   -33682.916    258.00967   -674.23054    1016.9237    72.270667    62.588235    36.056847   -17.894242   -311760.91 
    2450    53.446479    163102.14    72.271619     72.27162    36.057322          120    16056.355    17653.258   -33754.513    89.321197   -174.69145    1045.8321    72.271619    62.589059    36.057322   -14.966502   -311759.86 
    2500    54.512088     163111.9    72.273061    72.273061    36.058041          120    16097.637    17646.252   -34333.815    509.79105   -351.00455    1427.6172    72.273061    62.590307    36.058041   -196.64185   -311758.33 
    2550    55.684581    163116.39    72.273723    72.273723    36.058371          120    16048.449    17998.419   -33999.497   -85.567652   -690.78959      1007.37    72.273723    62.590881    36.058371    15.790464   -311756.94 
    2600    56.125222    163117.91    72.273948    72.273949    36.058484          120    16700.568    17365.979   -34005.971     536.8679   -363.18897     1359.272    72.273948    62.591076    36.058484    20.191904   -311754.81 
    2650    56.707327    163115.08    72.273529     72.27353    36.058275          120     16413.55    17159.439   -33488.727    321.40416   -265.40382    1156.7629    72.273529    62.590713    36.058275    28.087234   -311753.92 
    2700    56.682366    163109.41    72.272693    72.272693    36.057857          120    16249.938      17875.8   -33738.892    288.52102   -703.46925    1548.4003    72.272693    62.589988    36.057857    128.94882   -311753.84 
    2750    55.989397    163118.44    72.274026    72.274027    36.058523          120    16372.368    18026.929   -34034.056    353.21989   -718.59661    1335.1965    72.274026    62.591143    36.058523    121.74702   -311753.77 
    2800    56.096461     163137.9    72.276901    72.276901    36.059957          120    16256.819    17705.849   -34030.102    593.64509   -540.85715    1353.7678    72.276901    62.593633    36.059957   -22.477859   -311755.86 
    2850    55.147841    163155.06    72.279435    72.279435    36.061221          120    16124.087    17094.262    -34125.58    424.80468    332.68665    802.79028    72.279435    62.595827    36.061221   -302.41011    -311757.1 
    2900    54.190514    163158.01    72.279869     72.27987    36.061438          120    15930.375    17514.259   -34055.864    457.06075   -360.13417    1380.1841    72.279869    62.596203    36.061438   -203.74346   -311758.91 
    2950    54.394821    163144.04    72.277806    72.277807    36.060409          120    15257.709    17768.159   -34003.521    534.85228   -52.978999    962.39266    72.277806    62.594417    36.060409    -325.8846   -311761.94 
    3000    53.633259    163117.57    72.273897    72.273898    36.058458          120    15862.703    17395.181   -34522.769    160.85772    -371.3706    787.26739    72.273897    62.591032    36.058458   -421.62821   -311761.63 
    3050    53.954493    163086.04    72.269241    72.269241    36.056135          120    16360.664    17965.696   -34335.629    164.16408   -381.82532    1407.8928    72.269241    62.586999    36.056135   -3.0894789   -311762.56 
    3100    54.391971     163060.4    72.265453    72.265454    36.054245          120    16248.679    18461.455   -33106.824    549.49678   -398.51151    1690.1847    72.265453    62.583719    36.054245    534.43653   -311762.14 
    3150      54.1308    163062.34    72.265739    72.265739    36.054388          120    17210.832    18636.052   -32949.501    396.79047   -282.13556    1271.5873    72.265739    62.583966    36.054388    965.79415   -311759.08 
    3200    55.436936    163115.19    72.273546    72.273546    36.058283          120    15927.688    17862.129   -33738.948   -70.232289   -614.47775    1346.5109    72.273546    62.590727    36.058283    16.956413   -311758.34 
    3250    55.952152     163164.9    72.280887    72.280887    36.061945          120    15513.401    17461.785   -34125.553      323.177   -326.60791    898.38356    72.280887    62.597085    36.061945   -383.45583   -311756.55 
    3300    56.542456    163178.15    72.282843    72.282844    36.062922          120    16397.928    17577.839   -34242.419     541.3548    126.52867    1026.0004    72.282843    62.598779    36.062922   -88.883926   -311756.24 
    3350    56.584882    163175.81    72.282498    72.282498    36.062749          120    16115.426    17620.865   -33926.511    297.50174   -136.65415    1209.9708    72.282498     62.59848    36.062749   -63.406496   -311756.39 
    3400    55.819206    163167.62    72.281289     72.28129    36.062146          120    16103.691    17601.685   -34178.969    56.178642   -487.16524    1017.7957    72.281289    62.597433    36.062146   -157.86443   -311755.68 
    3450    55.227601    163153.33    72.279178    72.279179    36.061093          120    16382.906    17304.229   -33878.013    77.766709    -714.4284    1365.7803    72.279178    62.595605    36.061093   -63.626455   -311756.99 
    3500    54.647482    163124.18    72.274873    72.274874    36.058945          120    15784.766    17674.852    -33906.35   -72.680331   -178.80634    1394.7107    72.274873    62.591877    36.058945   -148.91067   -311758.67 
    3550    53.988845    163086.89    72.269367    72.269367    36.056198          120    16515.424    18052.498   -34077.077    103.95202   -513.34201    1516.9241    72.269367    62.587108    36.056198    163.61531   -311760.36 
    3600    53.814248     163068.2    72.266605    72.266606     36.05482          120    16644.549    18173.342   -33425.115    502.60458      27.5944    1132.7137    72.266605    62.584717     36.05482    464.25884   -311761.66 
    3650    53.281688    163079.47     72.26827    72.268271    36.055651          120    17009.756    18362.886   -33440.432    219.04682   -384.15445     1102.183     72.26827    62.586158    36.055651    644.07003    -311761.3 
    3700    53.495591    163118.18    72.273987    72.273988    36.058503          120    16345.964    17783.581   -34224.861    401.57706    32.616907    1174.0579    72.273987     62.59111    36.058503   -31.771969   -311761.16 
    3750    53.899857       163156    72.279574    72.279574     36.06129          120    16265.795    17764.104   -33946.328    134.98541   -189.05221    1398.8477    72.279574    62.595948     36.06129    27.857094    -311759.9 
    3800    54.952754    163181.98     72.28341     72.28341    36.063204          120    15752.197      17354.6   -33993.468   -41.525801   -308.67864    757.74146     72.28341     62.59927    36.063204   -295.55706   -311759.41 
    3850    55.716228    163186.62    72.284095    72.284095    36.063546          120    16379.205    17595.681   -33918.384    -214.3815   -550.08171    1277.0777    72.284095    62.599863    36.063546    18.833761   -311758.02 
    3900    56.294181    163182.31    72.283458    72.283458    36.063228          120    15896.704    17825.294   -34302.063    256.58987   -579.04061    807.50825    72.283458    62.599311    36.063228   -193.35481   -311756.76 
    3950    56.360688    163162.83    72.280581    72.280582    36.061793          120    15854.262    17305.383    -34545.27    322.03764   -789.20936     922.8859    72.280581     62.59682    36.061793   -461.87491   -311755.92 
    4000    56.774109    163127.69    72.275393    72.275393    36.059204          120    16370.386    17936.581   -33444.196   -46.578321   -251.19897    904.63232    72.275393    62.592327    36.059204    287.59046   -311757.63 
    4050    55.137974    163110.64    72.272874    72.272874    36.057948          120    16094.009    18447.359   -33402.177    199.40104   -417.95991    761.60857    72.272874    62.590145    36.057948    379.73032   -311756.03 
    4100    55.687443    163111.72    72.273033    72.273033    36.058027          120    16036.234    17329.272   -33950.402    333.07363   -105.18351    987.05892    72.273033    62.590283    36.058027   -194.96522    -311759.3 
    4150    54.690196    163110.66    72.272877    72.272878    36.057949          120    16470.483    17861.855   -33658.813   -88.376567   -247.34059    1388.4824    72.272877    62.590148    36.057949    224.50813   -311759.18 
    4200    53.802747    163118.98    72.274106    72.274107    36.058563          120    16709.352    18659.981    -33397.32   -28.827897   -150.40374    1404.9689    72.274106    62.591213    36.058563    657.33759   -311759.98 
    4250    54.026973    163154.39    72.279335    72.279335    36.061171          120    15970.444    17259.181   -34598.886     69.54557   -240.01629    1181.0069    72.279335    62.595741    36.061171   -456.42046   -311761.58 
    4300    53.873105    163173.68    72.282184    72.282184    36.062592          120    16100.635    17657.806    -33904.35    157.31299   -587.07188    1607.3441    72.282184    62.598208    36.062592   -48.636638   -311761.63 
    4350    54.171636    163169.76    72.281605    72.281606    36.062304          120    15561.232    18053.442     -33934.6    200.99506   -768.31038    1165.0479    72.281605    62.597707    36.062304   -106.64198   -311761.17 
    4400     54.66433    163149.48    72.278611    72.278611     36.06081          120     15860.25    17711.746   -34284.371     63.64033   -73.870859    1880.0478    72.278611    62.595114     36.06081   -237.45863   -311760.36 
    4450    55.066917    163119.32    72.274156    72.274156    36.058587          120    15964.071    18057.608   -33530.049    -1.608435   -282.47015    758.12379    72.274156    62.591256    36.058587    163.87679      -311759 
    4500    55.600691    163105.17    72.272066    72.272066    36.057544          120    16634.387    17965.317   -33768.823    306.33126   -211.80266    1673.7683    72.272066    62.589445    36.057544    276.96055   -311758.25 
    4550    55.672103    163115.63     72.27361    72.273611    36.058315          120    16741.992     18727.79   -33198.069    258.30124   -280.18972    1320.3227     72.27361    62.590783    36.058315    757.23785   -311756.27 
    4600    56.515767    163148.28    72.278432    72.278433    36.060721          120    15964.701    17851.705    -34339.23   -95.753049   -692.43437    1155.1817    72.278432    62.594959    36.060721   -174.27464   -311756.58 
    4650    55.825175    163171.97    72.281931    72.281932    36.062467          120    16005.615    16997.889   -34340.182    287.26292   -288.07117    1464.0921    72.281931    62.597989    36.062467   -445.55926   -311755.81 
    4700    55.713959    163170.42    72.281702    72.281703    36.062352          120    15493.616    17520.229   -34329.487    488.49524   -181.27484    1177.2666    72.281702    62.597791    36.062352   -438.54751   -311758.03 
    4750    55.620037     163147.3    72.278287    72.278288    36.060649          120    16225.395    17804.197   -33938.505   -16.094302     -418.318    1165.7876    72.278287    62.594834    36.060649    30.362394   -311759.95 
    4800    54.580336    163131.74     72.27599    72.275991    36.059502          120    16252.213    17888.463   -33538.897   -81.056416   -524.49374    1283.4105     72.27599    62.592844    36.059502     200.5931   -311760.28 
    4850    53.624525     163132.5    72.276103    72.276103    36.059559          120    16553.996    17954.135   -33495.954    16.430652   -675.70294    1072.7127    72.276103    62.592942    36.059559    337.39223   -311760.63 
    4900    53.922064    163155.36    72.279479     72.27948    36.061243          120    16082.184    17367.412   -33471.056    291.19286   -438.18406     1299.384    72.279479    62.595866    36.061243   -7.1534844   -311761.81 
    4950    53.511662    163172.26    72.281974    72.281975    36.062488          120    15750.554    17263.654    -34286.08    301.16547   -472.68549    1375.4127    72.281974    62.598027    36.062488    -423.9573   -311761.07 
    5000     54.05424    163159.58    72.280102    72.280103    36.061554          120     15663.04    17882.763   -34134.993    65.564184   -461.21147    1131.6002    72.280102    62.596405    36.061554   -196.39636   -311761.39 
    5050     54.95465    163138.77    72.277028    72.277029     36.06002          120    16491.327    17784.951   -33898.918    11.483616   -729.40058    1205.2895    72.277028    62.593743     36.06002    125.78666   -311761.03 
    5100    54.990853    163126.67    72.275242    72.275242    36.059129          120    16248.965    18195.013   -34165.558    66.280215   -54.614143    1574.0025    72.275242    62.592196    36.059129    92.806914   -311758.85 
    5150    55.161041    163118.74    72.274071    72.274071    36.058545          120    16610.512    18345.367   -33774.269    182.24716   -674.27057    717.07281    72.274071    62.591182    36.058545    393.87035   -311757.58 
    5200    56.341624     163124.3    72.274892    72.274892    36.058954          120    16311.474    17937.977   -33621.957   -9.8965938    224.21503    1294.3734    72.274892    62.591893    36.058954    209.16465   -311758.02 
    5250    56.196782    163135.32    72.276519     72.27652    36.059766          120    16009.897    17486.233   -34037.677   -166.29491   -598.18994    975.12232    72.276519    62.593302    36.059766   -180.51541   -311757.39 
    5300    55.820831     163138.3    72.276959     72.27696    36.059986          120    16173.785    18177.788   -33855.545    607.66028    142.15842    862.80746    72.276959    62.593683    36.059986    165.34257   -311757.17 
    5350    55.892586    163143.92    72.277788    72.277789      36.0604          120    15894.878    17675.486    -33838.77    200.79183   -79.143509    881.80163    72.277788    62.594401      36.0604   -89.468859   -311759.26 
    5400    54.762845    163140.81     72.27733    72.277331    36.060171          120    16480.422    17759.489    -33717.09    6.8730183   -112.81284    1075.3173     72.27733    62.594005    36.060171    174.27378   -311759.59 
    5450    54.573838    163141.37    72.277413    72.277414    36.060212          120    16309.156    18192.302   -33771.728    187.58053   -243.63753     1243.752    72.277413    62.594076    36.060212    243.24329   -311761.15 
    5500    53.883456    163151.67    72.278933    72.278933    36.060971          120    15912.901    17726.934   -33812.731    74.987592   -20.577733    1465.9442    72.278933    62.595393    36.060971   -57.632009   -311761.36 
    5550    53.972852    163153.02    72.279133    72.279134     36.06107          120    16155.171     17019.08   -33810.699    -72.95852   -502.74255    1131.2582    72.279133    62.595566     36.06107   -212.14929   -311762.58 
    5600     54.08132    163142.26    72.277544    72.277544    36.060278          120    15901.631    18205.592   -34009.002    478.69462   -264.79256     1397.903    72.277544     62.59419    36.060278    32.740331   -311762.02 
    5650     54.44714    163137.01    72.276769    72.276769    36.059891          120    16260.656    18104.142   -33754.629    263.12877   -195.43087    1153.9062    72.276769    62.593518    36.059891    203.38979   -311761.03 
    5700    54.735747    163150.59    72.278773    72.278774    36.060891          120    16296.441    17758.039   -34524.826   -158.32448   -364.63223    1539.9266    72.278773    62.595255    36.060891   -156.78197   -311759.52 
    5750    55.448087    163166.59    72.281136    72.281137     36.06207          120    16663.275    18095.341   -34112.863    132.39117   -52.304134    1120.6608    72.281136    62.597301     36.06207    215.25093   -311758.31 
    5800    55.990975    163189.01    72.284447    72.284448    36.063722          120     15754.43    17724.052   -33733.143    170.40046   -539.05585     1256.859    72.284447    62.600168    36.063722   -84.887286   -311757.46 
    5850    56.283608    163199.97    72.286065    72.286065    36.064529          120    15643.373    17492.959   -34707.891   -1.9732444    175.63396    1010.1972    72.286065    62.601569    36.064529   -523.85301   -311757.67 
    5900    56.739848    163180.23    72.283151    72.283151    36.063075          120    15838.541    17455.673   -34417.613    274.29058   -196.77863    1342.9583    72.283151    62.599045    36.063075   -374.46628   -311758.81 
    5950    55.615243    163140.26    72.277249     72.27725    36.060131          120    15855.033    17744.335    -33911.19    366.28605   -23.243268    982.30009    72.277249    62.593935    36.060131   -103.94038   -311757.77 
    6000    55.067839    163100.42    72.271364    72.271365    36.057194          120    17019.804    18285.086   -33448.334    392.67117   -543.50913    1295.6531    72.271364    62.588838    36.057194    618.85218    -311759.4 
    6050    54.551476     163094.1    72.270431    72.270432    36.056729          120    16491.198    18452.215   -33760.177    242.79459   -491.03015    1198.8866    72.270431     62.58803    36.056729    394.41182   -311760.13 
    6100    54.223064    163112.16    72.273098    72.273098    36.058059          120    16597.292    17856.951    -33549.46    328.55015   -427.52207    1612.3907    72.273098    62.590339    36.058059    301.59427   -311761.15 
    6150    53.652007    163144.71    72.277905    72.277906    36.060458          120     16338.46     18052.02   -33735.004    256.31487   -288.48082    713.97651    72.277905    62.594503    36.060458    218.49189   -311760.99 
    6200    54.221557    163176.41    72.282586    72.282587    36.062793          120    15632.782    17392.024   -34416.381    257.00438   -431.16971    1656.2002    72.282586    62.598556    36.062793    -463.8586   -311761.96 
    6250    55.171378    163180.37    72.283171    72.283172    36.063085          120    16004.756    17472.391   -34736.951    174.48522     40.40793    1085.5519    72.283171    62.599063    36.063085   -419.93488   -311763.26 
    6300    54.697824    163164.63    72.280848    72.280848    36.061926          120    15698.473    17768.173   -33787.206    503.70316   -381.42674    1151.3886    72.280848    62.597051    36.061926   -106.85346   -311760.55 
    6350    55.773534    163147.96    72.278385    72.278386    36.060698          120    16392.196     18221.52   -33673.253    225.66876   -585.70217    1090.5657    72.278385    62.594919    36.060698    313.48798   -311760.99 
    6400    55.281606    163144.85    72.277927    72.277927    36.060469          120    16172.083        17727   -33970.094    304.89391   -320.45936    1141.7327    72.277927    62.594521    36.060469   -23.670338   -311758.88 
    6450    55.714978    163143.17    72.277679    72.277679    36.060345          120    16232.119    18604.059   -33750.441    237.26946   -918.28926    1621.2784    72.277679    62.594306    36.060345    361.91241    -311758.2 
    6500    55.678484    163162.76    72.280571    72.280571    36.061788          120    15998.014     17149.46   -33920.588    283.90322   -214.15216    1389.5727    72.280571    62.596811    36.061788   -257.70467   -311757.99 
    6550    55.289294    163172.49    72.282008    72.282008    36.062505          120    15782.633    17441.285   -34576.722    264.59755   -525.40464    1488.9523    72.282008    62.598055    36.062505   -450.93473   -311758.19 
    6600    55.415687    163158.82    72.279989     72.27999    36.061498          120    16067.118    17660.378   -33634.461    505.80616   -540.61608    1685.9342    72.279989    62.596307    36.061498    31.011448   -311760.06 
    6650    54.730759    163148.18    72.278418    72.278418    36.060714          120    16290.996    17910.755   -33899.059    361.61263   -308.20977    1220.7798    72.278418    62.594946    36.060714    100.89764   -311760.36 
    6700    54.767858    163151.12    72.278853    72.278853    36.060931          120     16450.67    17799.811   -34213.123    452.25058   -779.16564    1274.4711    72.278853    62.595323    36.060931    12.452684   -311762.18 
    6750    54.500747    163156.37    72.279628    72.279628    36.061317          120    16399.068    17708.427   -34216.548     392.6215    -778.3354    1246.7839    72.279628    62.595994    36.061317   -36.350957   -311763.35 
    6800     54.00976    163172.24    72.281971    72.281972    36.062487          120    16394.872    17941.407   -33830.691    198.80206   -622.22272    1225.7352    72.281971    62.598024    36.062487    168.52928    -311763.4 
    6850    53.677325     163197.3     72.28567    72.285671    36.064332          120     16128.68    17404.454   -33833.511    284.83922   -754.40224    926.36524     72.28567    62.601228    36.064332    -100.1257   -311761.94 
    6900    54.772101    163206.85    72.287081    72.287082    36.065036          120    15890.305     17062.41   -34916.459    214.69753   -272.76173    1710.0618    72.287081    62.602449    36.065036   -654.58132   -311762.62 
    6950     54.66288    163179.85    72.283095    72.283095    36.063047          120    15639.256    18236.959   -34056.432    507.20031   -942.51266    1182.1299    72.283095    62.598997    36.063047   -60.072512   -311761.34 
    7000    55.041867    163153.53    72.279208    72.279208    36.061108          120    16903.225    18365.041   -33224.886    596.08171   -991.36688    1335.7478    72.279208    62.595631    36.061108    681.12676   -311759.44 
    7050     55.44146    163158.99    72.280014    72.280015     36.06151          120    15976.089    18029.963   -33827.981    431.86869   -1068.6705    1343.9019    72.280014    62.596329     36.06151    59.357036   -311758.73 
    7100    56.354367    163163.76    72.280719    72.280719    36.061862          120     15895.57    17508.085   -34017.005     432.6489   -868.99274    1635.3671    72.280719    62.596939    36.061862   -204.45004   -311759.82 
    7150    55.811357    163149.31    72.278585    72.278586    36.060797          120    15855.485     17619.22   -33791.677    704.09591   -900.78819    1636.6561    72.278585    62.595092    36.060797   -105.65722   -311758.79 
    7200    55.801847    163124.26    72.274885    72.274886    36.058951          120    16592.391    18467.085   -33768.222    542.65529   -705.07192    1758.1956    72.274885    62.591887    36.058951    430.41773   -311759.13 
    7250    55.682934    163122.17    72.274577    72.274577    36.058797          120     16907.58    18082.685    -33365.62    271.05165    -435.0767    1603.9289    72.274577     62.59162    36.058797    541.54841   -311760.61 
    7300    55.023926     163150.6    72.278776    72.278777    36.060892          120    16616.287    18126.895   -34063.183    346.32821   -1184.0636    1008.7217    72.278776    62.595257    36.060892    226.66622    -311761.5 
    7350    54.589354    163188.85    72.284424    72.284424     36.06371          120    16212.524    17565.305   -34465.662    367.40518   -599.20618    1592.0352    72.284424    62.600148     36.06371    -229.2778   -311762.71 
    7400     54.70655     163212.8     72.28796    72.287961    36.065475          120    16194.965    17265.533   -34597.968     190.6171    -865.9354     1345.628     72.28796    62.603211    36.065475   -379.15665   -311764.15 
    7450    53.449531    163209.36    72.287452    72.287453    36.065221          120    16200.169    17640.097     -33707.1  -0.18135845   -517.39678      1144.67    72.287452     62.60277    36.065221    44.388523   -311762.91 
    7500    53.659019     163199.2    72.285952    72.285952    36.064472          120    16117.569    18175.004   -33806.647    547.00358   -807.41042    1408.6828    72.285952    62.601471    36.064472    161.97529   -311763.59 
    7550    54.354078    163197.49      72.2857      72.2857    36.064347          120    16210.915    17807.641   -34154.731    206.88075   -422.03005    1490.9415      72.2857    62.601253    36.064347   -45.391646   -311763.65 
    7600    54.730524    163197.17    72.285652    72.285652    36.064323          120    15895.976    17622.462   -35013.856      232.938   -359.04961    1138.0027    72.285652    62.601211    36.064323   -498.47287   -311762.46 
    7650    55.713161     163182.7    72.283515    72.283516    36.063257          120    16256.554     18024.43   -33384.234    288.29596   -309.23725    1246.4816    72.283515    62.599361    36.063257    298.91684   -311762.36 
    7700    56.080113    163183.03    72.283565    72.283565    36.063281          120    16069.664    18097.624    -34079.91    255.82106   -407.17083    1559.7918    72.283565    62.599404    36.063281    29.125623    -311761.1 
    7750    55.956436    163190.54    72.284673    72.284674    36.063835          120    16391.634    17831.728   -33866.359    55.948397   -538.65308    1007.5109    72.284673    62.600364    36.063835    119.00147   -311759.97 
    7800    55.983768    163197.09     72.28564     72.28564    36.064317          120    16058.416    17897.257   -33888.972    282.68004   -496.18772    1503.2535     72.28564    62.601201    36.064317     22.23358   -311759.72 
    7850    56.059978       163200    72.286069     72.28607    36.064531          120    15882.244     17397.61   -34136.384   -23.480954   -385.29996    1188.3462    72.286069    62.601573    36.064531   -285.51039   -311760.91 
    7900    55.226817    163192.57    72.284973    72.284974    36.063984          120    15947.533    17862.451   -33636.589    387.19269   -581.51756    1234.4519    72.284973    62.600624    36.063984    57.798477   -311761.24 
    7950     55.04749     163181.7    72.283367    72.283368    36.063183          120    15775.973    18073.505   -34392.681    495.15087   -854.72269    1506.8262    72.283367    62.599233    36.063183   -181.06772    -311762.1 
    8000     54.39769    163161.67    72.280409     72.28041    36.061707          120    16368.724    18279.218   -33843.325    449.65396   -654.97376    962.71658    72.280409    62.596671    36.061707    268.20573   -311763.27 
    8050    54.317175    163156.25     72.27961    72.279611    36.061309          120    16697.098    18417.202   -33766.782     236.3915   -136.91639    971.99136     72.27961    62.595979    36.061309    449.17243   -311764.41 
    8100    53.768717    163177.68    72.282774    72.282775    36.062887          120     15716.63    17876.589   -33963.723    106.37122   -473.16358    1197.7281    72.282774    62.598719    36.062887   -123.50135   -311763.68 
    8150    54.181019    163196.01     72.28548    72.285481    36.064237          120     16205.11    17718.416   -33961.492   -33.356495   -179.84091    1429.7568     72.28548    62.601063    36.064237   -12.655496   -311764.09 
    8200    54.238549    163206.45    72.287022    72.287023    36.065007          120    15611.428    18006.666   -33862.084    201.25907   -695.00205    1149.7875    72.287022    62.602398    36.065007   -81.330335   -311762.67 
    8250     54.55345    163211.36    72.287747    72.287748    36.065368          120    15909.945    18382.382   -34451.876    295.72595   -709.51602     1287.108    72.287747    62.603026    36.065368   -53.182749   -311761.56 
    8300    55.178874    163215.08    72.288296    72.288297    36.065642          120    16017.722    17948.853   -33893.845    455.52648    -505.7916    1486.5132    72.288296    62.603502    36.065642    24.243433   -311761.33 
    8350    56.006013    163211.88    72.287823    72.287824    36.065406          120    15845.685    17805.737   -34451.817    510.96219   -278.22007    1612.0463    72.287823    62.603092    36.065406   -266.79806   -311761.01 
    8400    56.361553    163190.71    72.284698    72.284699    36.063847          120    15956.347    18035.696   -34571.961    224.88878   -844.98753    1611.6594    72.284698    62.600386    36.063847   -193.30584   -311761.09 
    8450    55.887486     163163.6    72.280696    72.280696     36.06185          120      16414.1    18081.278   -33602.747    193.13632   -379.15623    1232.1961    72.280696    62.596919     36.06185    297.54394   -311760.78 
    8500    55.871109    163156.68    72.279674    72.279674     36.06134          120    16740.824    18423.028   -33168.446    394.68995   -686.00167    1289.8177    72.279674    62.596034     36.06134     665.1354   -311761.58 
    8550     55.12988    163176.95    72.282667    72.282667    36.062833          120    16235.904    18182.151   -33644.068    199.74814   -629.22986    983.29347    72.282667    62.598626    36.062833    257.99586   -311761.51 
    8600    54.687914    163209.22    72.287431    72.287432    36.065211          120    15695.937    17833.575   -33984.308    391.99985   -779.57045    1283.1906    72.287431    62.602753    36.065211   -151.59866   -311762.49 
    8650    54.971747    163230.15    72.290521    72.290521    36.066752          120     15887.57     17654.22   -34422.761     676.9656   -428.54197    1303.4814    72.290521    62.605428    36.066752   -293.65686   -311764.85 
    8700    54.084845    163233.24    72.290977    72.290978     36.06698          120    16471.362    18079.782   -34220.442    720.39873   -1269.8336    843.31494    72.290977    62.605823     36.06698     110.2343   -311764.43 
    8750    53.964638    163226.31    72.289955    72.289955     36.06647          120     15569.47    18067.801   -34091.771    445.94041   -427.64877    1345.1368    72.289955    62.604938     36.06647   -151.49996   -311765.19 
    8800    54.722506    163211.39    72.287752    72.287753    36.065371          120    16306.673    18143.078   -34254.544    61.958229   -414.12933    880.58113    72.287752     62.60303    36.065371    65.069158   -311765.95 
    8850    54.708625    163202.02    72.286368    72.286369     36.06468          120    15883.128     17913.83   -34215.834    289.44404   -546.81111    649.64673    72.286368    62.601832     36.06468   -139.62568   -311765.18 
    8900    54.980868    163186.33    72.284052    72.284053    36.063525          120    16086.713    18078.863   -34203.022    368.37267    -578.6863    1229.2896    72.284052    62.599826    36.063525   -12.482127   -311764.89 
    8950    55.221041    163172.93    72.282072    72.282073    36.062537          120    15518.342    17980.275   -33543.097       124.74   -584.09214    625.27465    72.282072    62.598111    36.062537   -14.826628   -311764.69 
    9000    55.535094    163162.27    72.280498    72.280499    36.061752          120    15987.473     17817.45   -33627.266     86.86074   -904.67668    1214.8486    72.280498    62.596748    36.061752    59.218769   -311763.32 
    9050    55.385395    163156.87    72.279702    72.279702    36.061354          120    16271.726    17889.004   -33618.396    184.74727   -615.10883    505.72139    72.279702    62.596058    36.061354    180.77804   -311762.06 
    9100    55.695595    163161.72    72.280417    72.280418    36.061711          120    16679.391    18609.847   -34120.535    141.46492   -740.28521    767.78012    72.280417    62.596678    36.061711    389.56783   -311762.42 
    9150    55.443132    163185.34    72.283905    72.283905    36.063451          120    16109.702    18039.376   -34039.663     426.3082   -706.61917    1259.1271    72.283905    62.599699    36.063451    36.471703   -311762.46 
    9200    55.754119    163213.08    72.288001    72.288001    36.065495          120    15931.331    18156.848   -33372.691    571.33906   -285.83563    999.78744    72.288001    62.603246    36.065495    238.49611   -311764.37 
    9250     55.01555    163239.45    72.291894    72.291895    36.067437          120    15721.849    17010.808   -35128.066    251.36681   -937.23508    847.96124    72.291894    62.606617    36.067437   -798.46978   -311764.73 
    9300    54.558821    163237.37    72.291587    72.291587    36.067284          120    15966.228    17597.818   -34453.313    175.32812   -881.45842    779.03307    72.291587    62.606351    36.067284   -296.42241   -311765.35 
    9350     54.75326    163217.75    72.288691    72.288691    36.065839          120    15841.009      17967.4   -34248.929    577.95909   -974.22055    628.61021    72.288691    62.603843    36.065839   -146.83975   -311767.17 
    9400    54.609614     163193.8    72.285155    72.285155    36.064075          120    15979.771    18327.259   -33577.012    400.11285   -389.18796    1072.5523    72.285155    62.600781    36.064075    243.33923   -311767.42 
    9450    53.572411    163186.73    72.284111    72.284111    36.063554          120    15989.655    18421.855    -33688.74    518.23936   -658.90425    926.88361    72.284111    62.599877    36.063554    240.92334   -311764.58 
    9500    55.212295    163186.86     72.28413     72.28413    36.063563          120    16444.072    17961.851   -34062.528    959.29455   -834.82752    858.04555     72.28413    62.599893    36.063563    114.46493   -311766.71 
    9550    55.153439    163193.93    72.285173    72.285174    36.064084          120    16673.117    18094.795   -33749.102    329.73095   -622.50226    944.73879    72.285173    62.600797    36.064084    339.60335   -311765.25 
    9600    55.346945    163209.43    72.287462    72.287462    36.065226          120    15818.761    18126.863   -34477.368    511.65734   -653.38802    755.99698    72.287462    62.602779    36.065226   -177.24763   -311763.49 
    9650    55.989667    163216.89    72.288563    72.288564    36.065775          120    16055.514    18163.561    -33929.15    447.51303   -575.95954    912.83893    72.288563    62.603733    36.065775    96.641612   -311763.24 
    9700     55.89594    163220.99    72.289169    72.289169    36.066077          120    16241.607    17775.769   -33854.027    364.09358   -854.10349    694.39094    72.289169    62.604257    36.066077    54.449369   -311762.67 
    9750    55.714559     163223.4    72.289525    72.289525    36.066255          120    15808.891    17451.166   -34197.224    433.34824   -589.16011    814.54967    72.289525    62.604565    36.066255   -312.38894    -311762.9 
    9800    55.722613    163216.06     72.28844    72.288441    36.065714          120    16038.282    18324.831   -34015.118    185.92705   -619.34584     827.6694     72.28844    62.603626    36.065714    115.99863    -311764.4 
    9850     54.99322     163204.9    72.286794    72.286794    36.064893          120    16157.491    17384.821   -34344.876    268.87345   -819.92351    1229.1084    72.286794      62.6022    36.064893   -267.52147   -311765.06 
    9900    54.285697    163187.52    72.284228    72.284228    36.063612          120    16096.575    17624.629    -33506.94    662.14823   -1056.1833    744.48562    72.284228    62.599978    36.063612    71.421452   -311765.62 
    9950    54.495903    163180.61    72.283207    72.283208    36.063103          120    16474.397    18034.519   -33623.999    421.77173   -729.36625    733.16141    72.283207    62.599095    36.063103    294.97236   -311767.06 
   10000    53.636918     163183.8    72.283678    72.283678    36.063338          120    16128.096     18564.54   -33910.235    332.96746   -1020.5816     1125.981    72.283678    62.599502    36.063338    260.80003   -311766.54 
   10050    53.922712    163200.69    72.286171    72.286172    36.064582          120     16161.11    18393.289   -34080.771    351.10935   -711.78394    1039.5712    72.286171    62.601661    36.064582    157.87598   -311766.56 
   10100    54.104432    163223.05    72.289473    72.289474    36.066229          120    15681.112    17666.155   -33958.308    808.59278   -700.74393    949.07969    72.289473    62.604521    36.066229   -203.68025   -311765.61 
   10150    54.628367    163231.54    72.290727    72.290727    36.066855          120    15655.768    17483.742   -34452.593    421.65612   -773.92749    1085.3433    72.290727    62.605606    36.066855   -437.69443   -311764.57 
   10200    55.202804    163215.23    72.288318    72.288319    36.065653          120    16013.818    17982.486   -33642.833    -63.59063   -941.75644    1119.1513    72.288318    62.603521    36.065653    117.82371   -311764.65 
   10250    55.582929    163193.67    72.285135    72.285135    36.064065          120    16151.452    18214.553   -34369.443    481.33833   -805.56117    852.49278    72.285135    62.600763    36.064065   -1.1460659   -311763.75 
   10300    55.453425    163186.28    72.284045    72.284045    36.063521          120    16674.183    18646.839   -33700.552    500.05926   -574.67473    634.89805    72.284045     62.59982    36.063521    540.15661   -311762.48 
   10350    56.251743    163208.79    72.287367    72.287367    36.065178          120    16399.964    18323.153   -33854.377    305.39105     -1009.58    879.02721    72.287367    62.602697    36.065178    289.58006    -311763.7 
   10400    55.843299    163246.52    72.292938    72.292938    36.067958          120    15762.017    17714.825   -33983.293    338.76198   -784.55782    850.37179    72.292938    62.607521    36.067958   -168.81659    -311763.5 
   10450    55.503637    163270.17    72.296429    72.296429    36.069699          120    15606.485    17183.699   -34531.746    603.77657   -994.52925    792.90969    72.296429    62.610544    36.069699    -580.5207   -311763.93 
   10500    54.801314    163255.55     72.29427    72.294271    36.068623          120    15174.127    16943.943   -34902.227    487.88265   -666.99815    823.85161     72.29427    62.608675    36.068623    -928.0524   -311764.43 
   10550     54.61789    163206.03     72.28696    72.286961    36.064976          120        15935    18365.623   -34202.794    544.18097   -993.97607    743.45888     72.28696    62.602345    36.064976    32.609683   -311766.44 
   10600    54.095889    163163.09    72.280619     72.28062    36.061812          120    16452.808    18278.023   -33679.207    59.169818   -699.85408    1194.1551    72.280619    62.596853    36.061812    350.54107    -311766.6 
   10650    54.304588    163144.33     72.27785     72.27785     36.06043          120    16056.403    18341.094   -33493.131    179.32139   -836.00615    625.41777     72.27785    62.594455     36.06043    301.45539   -311767.91 
   10700    54.285782    163154.71    72.279382    72.279383    36.061195          120     17119.41    18320.622   -33526.585     424.5514   -777.71298    720.60394    72.279382    62.595782    36.061195    637.81525   -311767.01 
   10750     54.29894    163198.27    72.285814    72.285815    36.064404          120    16350.537    17610.927   -33654.945    378.25684   -673.02723    861.80604    72.285814    62.601352    36.064404    102.17301   -311766.32 
   10800    54.882585    163235.48    72.291308    72.291309    36.067145          120    15723.898    17678.357    -34346.26    550.57993   -931.86283    458.36785    72.291308     62.60611    36.067145   -314.66833   -311765.37 
   10850     55.03554    163244.88    72.292695    72.292696    36.067837          120    15702.592    18059.589   -34005.994    748.80052   -901.81662     1260.703    72.292695    62.607311    36.067837    -81.27066   -311763.95 
   10900    56.002524    163242.77    72.292384    72.292385    36.067682          120    15905.205    17895.937    -34377.97    296.29784   -712.45882    901.71189    72.292384    62.607042    36.067682   -192.27602   -311763.89 
   10950    56.085655    163229.81    72.290471    72.290471    36.066727          120    15732.474    18293.004   -33956.375    270.30918    -865.5834    970.56642    72.290471    62.605385    36.066727    23.034183    -311763.5 
   11000    55.899111     163213.1    72.288003    72.288004    36.065496          120    15677.416    18140.343   -33948.689    408.71537   -518.03552    773.06138    72.288003    62.603248    36.065496   -43.643554   -311763.03 
   11050     56.11395    163198.73    72.285882    72.285882    36.064438          120    16715.502    18400.731   -33619.826    329.87904   -912.55864    780.10209    72.285882    62.601411    36.064438    498.80241   -311764.87 
   11100    54.281018    163204.12    72.286678    72.286678    36.064835          120    15720.254    17714.464   -33884.302     112.4351   -544.00398    683.26074    72.286678      62.6021    36.064835    -149.8613   -311763.32 
   11150    54.753368    163207.08    72.287115    72.287115    36.065053          120    15941.164     18143.21   -34155.728    248.10951    -799.6485    864.96804    72.287115    62.602478    36.065053   -23.784443   -311765.55 
   11200    54.485805    163209.38    72.287455    72.287456    36.065223          120    16450.079    17946.439   -33931.008    240.00014   -507.82629    562.46031    72.287455    62.602773    36.065223    155.16996   -311766.16 
   11250    54.093523    163213.99    72.288136    72.288136    36.065562          120    16313.355    18098.536    -33834.55    476.29282    -589.1265     736.4718    72.288136    62.603362    36.065562    192.44714   -311766.37 
   11300    54.448093    163224.84    72.289737    72.289737    36.066361          120     16219.74    18101.029   -33782.135    493.55967   -592.89363    442.31296    72.289737    62.604749    36.066361     179.5447   -311766.65 
   11350    54.373388    163240.88    72.292105    72.292106    36.067543          120    16074.329    17691.351   -33806.145     350.7088    -436.4989     511.2296    72.292105      62.6068    36.067543   -13.488245   -311766.15 
   11400    54.905552    163243.04    72.292424    72.292425    36.067702          120    15973.136    17887.553   -34518.982    540.29773   -639.57143    748.35739    72.292424    62.607076    36.067702   -219.43098   -311766.14 
   11450    54.725283    163230.92    72.290634    72.290635    36.066809          120    15848.378    17774.738   -34190.646    324.37411   -992.92789    533.31969    72.290634    62.605526    36.066809   -189.17645   -311764.26 
   11500    55.851712    163208.41    72.287311    72.287312    36.065151          120    15836.453     17812.25   -34277.553    548.83719   -769.30466    1049.2962    72.287311    62.602648    36.065151   -209.61665   -311765.59 
   11550    55.918093    163181.58     72.28335     72.28335    36.063174          120     16569.59    18537.745   -33926.225    109.58345   -664.80921    769.73053     72.28335    62.599218    36.063174    393.70324   -311764.56 
   11600     56.01265    163184.53    72.283785    72.283786    36.063392          120    16269.364    18206.518   -33814.521    489.25177   -915.21194    949.99076    72.283785    62.599595    36.063392    220.45356   -311764.01 
   11650    55.597532     163198.8    72.285893    72.285893    36.064443          120    16051.529    17932.428   -33950.192    565.32695   -705.12546    625.63362    72.285893     62.60142    36.064443    11.255199   -311764.17 
   11700    55.063797    163207.79    72.287219     72.28722    36.065105          120    15543.134    18176.601   -33645.601   -69.582707   -977.03601    785.78898    72.287219    62.602569    36.065105    24.711137   -311763.71 
   11750     54.48169    163214.22    72.288169     72.28817    36.065579          120    15866.072     17976.88   -34504.179    395.91974   -953.23549    626.14381    72.288169    62.603391    36.065579   -220.40873   -311763.67 
   11800    54.229684    163214.95    72.288276    72.288277    36.065632          120    15979.651    18345.795   -34014.058    473.26852   -670.62402    1162.3271    72.288276    62.603484    36.065632    103.79607   -311765.07 
   11850    54.915733    163213.88    72.288119    72.288119    36.065554          120    16073.871    17825.476   -33759.955    615.87525   -660.11855    1004.6213    72.288119    62.603348    36.065554    46.464363   -311767.24 
   11900    53.942223    163209.81    72.287518    72.287519    36.065254          120    16269.288     17717.59   -34175.323    350.34929   -973.96826    1181.1104    72.287518    62.602828    36.065254   -62.815195   -311766.22 
   11950    54.714943    163201.22     72.28625     72.28625    36.064621          120    16002.867    18156.058   -33914.504    714.81324   -488.82688    820.92543     72.28625    62.601729    36.064621    81.473646   -311767.32 
   12000    54.707156    163196.76    72.285592    72.285592    36.064293          120    16331.263     17948.72   -34517.434     531.7429   -613.35151    628.50775    72.285592     62.60116    36.064293   -79.150544   -311766.21 
   12050    55.027593    163199.17    72.285947    72.285948     36.06447          120    16533.813    18020.973   -33620.108    34.511927   -802.07863    312.13514    72.285947    62.601467     36.06447    311.55938   -311765.92 
   12100    54.801608    163213.61     72.28808     72.28808    36.065534          120    15752.058    18120.376   -34336.501    428.04323   -728.35002    884.83607     72.28808    62.603314    36.065534   -154.68903   -311764.11 
   12150    55.611409    163220.28    72.289063    72.289064    36.066025          120    15722.245    17651.242   -34150.624    210.21902   -734.39144    986.79973    72.289063    62.604166    36.066025   -259.04573    -311764.8 
   12200    56.500821    163215.13    72.288303    72.288303    36.065645          120    16281.878     18460.54   -33379.677    302.80564   -887.34045     1192.936    72.288303    62.603507    36.065645    454.24693   -311765.92 
   12250    55.091408    163227.74    72.290164    72.290165    36.066574          120    16011.006    18422.852   -33690.892    240.17478   -924.22624    632.49268    72.290164     62.60512    36.066574    247.65557   -311764.01 
   12300    55.345648    163248.99    72.293303    72.293303     36.06814          120    15444.564    17355.394    -34401.52    372.49559   -663.49091    885.66881    72.293303    62.607837     36.06814   -533.85385    -311765.2 
   12350    54.835362    163244.06    72.292574    72.292575    36.067776          120    15359.951    17102.329   -34767.752    363.50283   -890.38866    713.12655    72.292574    62.607206    36.067776   -768.49085   -311765.89 
   12400      55.1048    163209.37    72.287454    72.287454    36.065222          120    16073.098    18188.897   -33406.608    424.92617   -404.74806    878.06285    72.287454    62.602772    36.065222    285.12907   -311767.86 
   12450    53.994254    163189.46    72.284513    72.284514    36.063755          120     16416.05    18682.138   -33677.725    506.87586    -907.0101    820.52524    72.284513    62.600226    36.063755    473.48751   -311767.01 
   12500    54.112274    163197.94    72.285766    72.285766     36.06438          120    16453.741    18531.175   -33555.359     332.4642   -548.46347    954.64057    72.285766     62.60131     36.06438    476.51908   -311767.72 
   12550    54.070497    163235.65    72.291332    72.291333    36.067157          120    15500.782    17948.918   -34619.914    18.433056   -780.13323    732.18742    72.291332    62.606131    36.067157    -390.0712   -311767.08 
   12600    54.186144    163263.06    72.295379    72.295379    36.069176          120      15668.5    17796.071   -34558.363    730.43092    -1128.582    923.96858    72.295379    62.609635    36.069176   -364.59736   -311766.34 
   12650    55.067705    163258.45    72.294698    72.294698    36.068836          120    16023.926    17979.167   -34068.913    511.49462     -423.661    605.69152    72.294698    62.609046    36.068836   -21.939769   -311766.44 
   12700    55.554955    163239.53    72.291906    72.291906    36.067443          120    16102.891    17993.537   -33728.316     146.3246   -865.45205    577.66201    72.291906    62.606628    36.067443    122.70412   -311766.26 
   12750    55.526104    163221.81     72.28929    72.289291    36.066138          120    16137.354    18553.559   -33605.841    115.83175   -384.12532    662.93696     72.28929    62.604362    36.066138    361.69078    -311764.6 
   12800    55.889311    163215.31     72.28833     72.28833    36.065659          120    16017.787     17625.13   -34467.891    51.608468   -850.14043    1320.1647     72.28833    62.603531    36.065659   -274.99169   -311764.75 
   12850    56.037845    163207.66      72.2872    72.287201    36.065095          120    16065.669    18145.683   -33487.663     106.5999   -1048.3381     938.7693      72.2872    62.602552    36.065095    241.22962   -311765.33 
   12900    55.317004    163203.48    72.286583    72.286584    36.064788          120    15993.867    18239.366   -34105.627    453.50729   -701.82898    768.38433    72.286583    62.602018    36.064788     42.53523   -311764.83 
   12950    55.412649    163212.63    72.287935    72.287936    36.065462          120    16112.033    18421.406   -34151.368    310.10039   -942.64028    918.74855    72.287935    62.603189    36.065462    127.35691   -311766.26 
   13000    54.729209    163238.85    72.291806    72.291806    36.067393          120    16794.938    18685.144   -33484.739    368.75071   -489.81868    772.72728    72.291806    62.606541    36.067393    665.11451   -311765.99 
   13050    54.551845    163278.88    72.297714    72.297714    36.070341          120    15158.575    17681.018   -34814.172    90.155705   -750.32457    996.22699    72.297714    62.611657    36.070341    -658.1928   -311766.83 
   13100    54.450256    163281.64    72.298121    72.298121    36.070544          120    15856.396    17083.952   -34624.268    233.44973    -909.6576    790.37615    72.298121     62.61201    36.070544   -561.30663   -311767.63 
   13150    54.470126    163246.41    72.292922    72.292922     36.06795          120    15643.189    16753.777   -34648.692    414.15069   -478.66548    866.72891    72.292922    62.607507     36.06795    -750.5749   -311768.38 
   13200    54.277519     163181.8    72.283383    72.283383    36.063191          120    16070.055    18760.649   -33305.113    262.93238   -1014.5781    604.66314    72.283383    62.599246    36.063191    508.53008   -311767.26 
   13250    54.628252    163147.08    72.278256    72.278256    36.060633          120    16391.259    19556.738   -32779.236    119.36722   -503.04353    1171.4998    72.278256    62.594806    36.060633    1056.2537   -311767.29 
   13300    55.265432    163176.74    72.282636    72.282637    36.062818          120    16650.414    18454.236    -33693.99    311.99113    -534.5112    920.74226    72.282636      62.5986    36.062818    470.22002   -311767.06 
   13350    55.110665    163239.26    72.291866    72.291866    36.067423          120    15696.292     17481.45   -34686.429    673.75587    -966.4992    829.93319    72.291866    62.606593    36.067423   -502.89536   -311765.19 
   13400     55.31612    163277.45    72.297502    72.297503    36.070235          120    15310.619    17315.915   -34557.466    348.31219   -551.65881      715.857    72.297502    62.611474    36.070235   -643.64433   -311763.96 
   13450     55.67304    163271.06     72.29656    72.296561    36.069765          120    16168.015    17490.342   -34193.401    442.40731   -978.14044    1008.5294     72.29656    62.610659    36.069765   -178.34822   -311763.55 
   13500    55.730357    163243.06    72.292427    72.292427    36.067703          120    16059.568    17827.299   -33809.683    305.06392   -453.08202    399.70686    72.292427    62.607079    36.067703    25.727813   -311764.78 
   13550    55.323601    163219.61    72.288965    72.288965    36.065976          120    15979.349    18450.103   -34036.647    286.61338   -859.38267    1030.8042    72.288965     62.60408    36.065976    130.93493   -311764.66 
   13600    55.105293    163213.22    72.288021    72.288022    36.065505          120    16058.503    18565.214   -34096.446    461.54021   -982.62287     429.4893    72.288021    62.603263    36.065505    175.75689   -311765.77 
   13650    55.138968    163224.79     72.28973     72.28973    36.066357          120    15631.704    18079.193   -33633.054     352.4259   -822.75178     640.7715     72.28973    62.604743    36.066357    25.947692   -311767.52 
   13700    54.208339    163242.29    72.292313    72.292314    36.067646          120     15912.29    17317.209   -33926.309    328.62334   -464.93943    730.21987    72.292313     62.60698    36.067646   -232.26988    -311766.9 
   13750    54.712629    163243.98    72.292562    72.292563     36.06777          120    15378.167    17772.572   -34626.459    297.40498   -676.06875    1049.6544    72.292562    62.607196     36.06777   -491.90668   -311768.73 
   13800    54.590052       163221     72.28917    72.289171    36.066078          120    16100.138    18597.241   -34025.519    187.09744   -513.93688    1043.1886     72.28917    62.604258    36.066078    223.95324   -311767.79 
   13850    54.427357    163209.82     72.28752     72.28752    36.065255          120     16322.45    18433.998   -33826.638    276.24785   -1036.6339    751.82475     72.28752    62.602829    36.065255    309.93672   -311767.27 
   13900    55.036207    163219.44     72.28894    72.288941    36.065963          120    15727.956    18138.802   -34084.976    181.27563   -711.50866     781.6675     72.28894    62.604059    36.065963   -72.739284   -311767.18 
   13950    55.118657    163227.78    72.290171    72.290172    36.066578          120    15215.769    17914.982   -34632.316    485.59593   -565.32526    692.17304    72.290171    62.605126    36.066578   -500.52154    -311765.8 
   14000    55.454325    163214.11    72.288153    72.288153    36.065571          120    15975.131    18406.238   -33756.469    86.168796   -584.03364    1008.5779    72.288153    62.603377    36.065571    208.29966   -311764.91 
   14050     56.08097    163211.26    72.287733    72.287733    36.065361          120    16085.613    17910.089   -33613.661    770.03934   -732.51731    776.86039    72.287733    62.603014    36.065361      127.347   -311765.68 
   14100    55.505217    163223.72    72.289572    72.289572    36.066279          120    15822.959    17917.967   -34140.381    352.93327   -624.80718    675.35132    72.289572    62.604606    36.066279   -133.15163   -311764.24 
   14150    55.853315    163237.64    72.291626    72.291627    36.067303          120    15926.698    18017.947   -33795.736    247.35555   -1068.1336    820.25617    72.291626    62.606385    36.067303    49.636181   -311765.36 
   14200    55.133149    163252.98    72.293891    72.293891    36.068433          120    15597.315    18381.437   -34072.588    114.28155   -568.41113    632.49026    72.293891    62.608347    36.068433   -31.278794      -311765 
   14250    55.018035    163257.16    72.294507    72.294508    36.068741          120    15669.895    17758.767   -34194.246    349.00085   -531.87719    978.70707    72.294507    62.608881    36.068741   -255.19457   -311766.26 
   14300    54.934416    163246.37    72.292915    72.292916    36.067947          120    15735.565    18327.676   -34058.617    425.83379   -1223.8705    960.75672    72.292915    62.607502    36.067947    1.5413526   -311767.87 
   14350     54.48715    163231.81    72.290767    72.290767    36.066875          120    15930.136    18089.378   -34077.686     163.7343   -810.86092    667.22414    72.290767    62.605641    36.066875   -19.390575   -311768.03 
   14400    54.084495     163213.8    72.288108    72.288108    36.065548          120    15907.373    18555.461   -33684.275    308.22949   -637.90684    636.71481    72.288108    62.603338    36.065548    259.51966   -311767.59 
   14450    54.118141    163205.15    72.286831    72.286831    36.064911          120    16162.245    18417.581   -34084.835    426.95282   -884.63141     642.2204    72.286831    62.602232    36.064911    164.99672   -311767.62 
   14500    54.616121    163215.44    72.288349     72.28835    36.065669          120    16393.292    18310.453   -33714.501    659.15483   -633.24107     1025.878    72.288349    62.603547    36.065669     329.7482   -311767.61 
   14550      55.0666    163239.67    72.291927    72.291928    36.067454          120    15877.905    17588.373   -34363.705    897.90334   -558.27871    402.13129    72.291927    62.606646    36.067454   -299.14263   -311766.98 
   14600     55.56319    163247.47    72.293077    72.293078    36.068028          120    15603.566    17813.147   -34571.301    43.381401   -509.47785    1118.0148    72.293077    62.607642    36.068028   -384.86244   -311766.51 
   14650     55.67565    163237.77    72.291647    72.291647    36.067314          120    16378.067    18165.924   -33370.433    7.2849702   -825.98277    565.40538    72.291647    62.606403    36.067314    391.18581    -311765.3 
   14700    55.672167    163240.04     72.29198    72.291981     36.06748          120    15787.284    17926.718   -33963.196    280.08826   -357.63777     888.6521     72.29198    62.606692     36.06748   -83.064663   -311764.38 
   14750    56.443362    163246.53    72.292938    72.292939    36.067958          120    16209.827    17983.105   -33572.429    148.54116   -824.98169    656.93823    72.292938    62.607522    36.067958    206.83425   -311766.49 
   14800    55.219238    163256.71    72.294441    72.294442    36.068708          120    15601.069    17872.909   -34239.319    462.93354   -594.43355    1042.0364    72.294441    62.608823    36.068708   -255.11359    -311764.6 
   14850    55.155606    163248.13    72.293175    72.293175    36.068076          120    15698.478    18490.565   -34595.934     431.9124    -926.3943    696.07575    72.293175    62.607726    36.068076   -135.63053   -311765.77 
   14900     54.76088    163225.34    72.289812    72.289812    36.066398          120    16396.365    18368.105   -33700.665    288.76803   -683.05069    905.33935    72.289812    62.604814    36.066398    354.60164   -311766.85 
   14950    54.136391    163215.44     72.28835    72.288351    36.065669          120    16111.321    18092.907   -34168.298    365.95048    -754.7527    748.34695     72.28835    62.603548    36.065669    11.976581   -311766.74 
   15000    54.443324     163210.7     72.28765     72.28765     36.06532          120    15953.026    17994.861    -33884.99    553.30559   -891.22498    964.39056     72.28765    62.602942     36.06532    20.965725   -311767.96 
   15050    54.238145    163204.32    72.286708    72.286708     36.06485          120    15865.505    18326.471   -33997.974    301.21528   -870.97273     302.3322    72.286708    62.602126     36.06485    64.667301   -311768.22 
   15100    54.427669    163197.27    72.285667    72.285667     36.06433          120    15993.578    18371.981   -34053.037    204.23574   -955.03723    1108.1501    72.285667    62.601224     36.06433    104.17416   -311768.05 
   15150    54.346086     163200.4    72.286129    72.286129    36.064561          120    16494.154    18063.092   -33286.136    460.37677   -626.13233     384.1862    72.286129    62.601624    36.064561    423.70317   -311766.21 
   15200    55.379966    163222.14    72.289338    72.289339    36.066162          120    15746.155    18201.695   -34111.252    497.78763   -1414.2014    848.14605    72.289338    62.604404    36.066162   -54.467545   -311766.54 
   15250    55.582649    163246.23    72.292894    72.292895    36.067936          120    15735.269    18281.294   -34225.684    563.69609    -671.6925    681.61642    72.292894    62.607483    36.067936   -69.707092   -311765.76 
   15300    55.919193    163259.52    72.294856    72.294857    36.068915          120    15804.423    18165.101   -34253.141    256.33516   -951.33132     813.6765    72.294856    62.609183    36.068915   -94.539372   -311765.35 
   15350    55.911121    163260.83     72.29505     72.29505    36.069012          120    15885.344    18117.299   -33682.253    280.48414   -844.70249    949.73018     72.29505     62.60935    36.069012    106.79653   -311765.21 
   15400    55.565293     163256.2    72.294367    72.294367    36.068671          120    15605.745    18062.574   -34340.957    334.01885   -763.15979    635.06458    72.294367    62.608759    36.068671   -224.21285   -311765.04 
   15450    55.935728    163240.27    72.292015    72.292016    36.067497          120    16095.885    18862.587    -33815.99    450.84476   -627.51907    334.78938    72.292015    62.606722    36.067497    380.82739    -311766.8 
   15500    54.737217    163233.37    72.290996    72.290996    36.066989          120    16047.288    18002.638   -34135.555    385.06754   -850.17414    863.64618    72.290996    62.605839    36.066989   -28.543083   -311765.96 
   15550    54.286722    163221.09    72.289184    72.289184    36.066085          120    15081.986    18588.947   -34043.881    189.93487   -787.76927    950.03735    72.289184     62.60427    36.066085   -124.31611   -311766.45 
   15600    54.544948    163195.14    72.285352    72.285353    36.064173          120    15947.695    18518.257   -33790.963     737.6319   -777.53008    524.95386    72.285352    62.600952    36.064173     224.9961   -311768.15 
   15650    54.538164    163182.54    72.283491    72.283492    36.063245          120    16639.492    18724.123   -33637.625    700.42888   -835.61912    1178.8567    72.283491    62.599341    36.063245    575.33002   -311768.34 
   15700    54.642796    163212.29    72.287885    72.287885    36.065437          120    16186.761    17817.933   -34100.457    153.78472   -870.23641    521.44465    72.287885    62.603145    36.065437   -31.921151   -311768.23 
   15750    54.507895    163254.58    72.294128    72.294128    36.068552          120    15677.737    17719.771   -34402.353    336.28706   -772.56305    611.28136    72.294128    62.608552    36.068552   -334.94815   -311767.03 
   15800    55.151649    163278.12    72.297602    72.297603    36.070285          120    15777.496    17650.211   -34691.652    321.04472   -812.75841    258.94193    72.297602    62.611561    36.070285   -421.31514    -311767.2 
   15850    54.765956    163273.73    72.296954    72.296955    36.069962          120    15428.413    17610.707   -34608.203    352.48169    -1120.885    771.36832    72.296954       62.611    36.069962   -523.02762   -311765.07 
   15900    55.700447    163249.21    72.293334    72.293335    36.068156          120    15828.896     17933.17    -34072.74    305.55759   -832.82204    675.78636    72.293334    62.607865    36.068156   -103.55813   -311765.73 
   15950    55.729496    163231.99    72.290792    72.290793    36.066887          120    15999.154    18504.161    -34104.54    509.89811   -944.54394    849.52424    72.290792    62.605663    36.066887    132.92501   -311765.05 
   16000    55.778425    163221.77    72.289283    72.289284    36.066135          120    16524.407    18392.432   -33648.222     323.8255   -638.72812    1164.5817    72.289283    62.604356    36.066135    422.87224   -311765.39 
[...]
   46000    54.346105    163247.24    72.293043    72.293044    36.068011          120    16074.669    18619.252   -33626.199    507.95056   -879.31052    511.54966    72.293043    62.607613    36.068011     355.9073   -311768.27 
   46050    54.586113    163296.31    72.300286    72.300287    36.071624          120    16182.141    17340.985   -35035.047    232.83288   -835.51863    954.42185    72.300286    62.613885    36.071624   -503.97362   -311768.15 
   46100    54.312262    163316.18    72.303219     72.30322    36.073087          120    15852.248    17338.839   -34265.472    572.41478   -945.43353    426.70138    72.303219    62.616425    36.073087    -358.1283   -311767.21 
   46150    55.201612    163303.37    72.301329    72.301329    36.072144          120    15424.697    17877.213   -34559.573    243.97976   -923.96178    723.42367    72.301329    62.614788    36.072144   -419.22097   -311768.18 
   46200     55.38339    163267.75    72.296071    72.296072    36.069521          120    15740.099     17818.65   -34557.201    336.68004   -851.71011    490.32339    72.296071    62.610235    36.069521   -332.81703   -311768.36 
   46250    55.499583     163228.1    72.290218    72.290218    36.066601          120    16345.507    17708.423   -33693.475    141.36164   -1355.0536    742.37268    72.290218    62.605166    36.066601    120.15193   -311768.82 
   46300    55.904821    163207.31     72.28715     72.28715     36.06507          120    16273.935    18008.958   -33920.095    590.83629   -916.31826    817.60688     72.28715    62.602509     36.06507    120.93258   -311768.96 
   46350    55.154894    163206.39    72.287014    72.287014    36.065002          120      16305.1    18535.263   -33629.734    500.03469   -867.83867    527.53475    72.287014    62.602391    36.065002    403.54288   -311767.24 
   46400    55.420447    163232.56    72.290877    72.290878     36.06693          120    17064.769    18131.017   -34215.521    297.12472   -1300.0287    907.58381    72.290877    62.605737     36.06693    326.75526   -311767.87 
   46450    54.844721    163275.63    72.297234    72.297234    36.070101          120     15806.89    17776.175   -34015.072    450.36331   -647.07798    554.73236    72.297234    62.611242    36.070101   -144.00211   -311767.03 
   46500    55.510982    163311.55    72.302536    72.302537    36.072747          120    15411.389    17522.779   -34788.576    669.81297   -916.43101    997.79931    72.302536    62.615834    36.072747    -618.1361   -311769.21 
   46550    54.877372    163315.37    72.303099      72.3031    36.073028          120     15780.85    17297.636   -34129.246    718.68695   -845.26517    485.46177    72.303099    62.616322    36.073028   -350.25324   -311768.17 
   46600    54.388184     163291.7    72.299607    72.299607    36.071285          120     15553.07    17356.548   -34421.028      565.411   -918.41334    901.57216    72.299607    62.613297    36.071285   -503.80352   -311768.27 
   46650    54.927115    163243.79    72.292534    72.292534    36.067756          120    16337.939    18220.551   -33676.144    144.86933   -921.98255    465.11605    72.292534    62.607171    36.067756    294.11545   -311769.48 
   46700    54.637794     163204.3    72.286705    72.286706    36.064848          120     16112.42    18309.218    -33865.99    547.99075   -932.62597    184.28662    72.286705    62.602124    36.064848    185.21597   -311768.74 
   46750    54.845856    163186.44    72.284067    72.284068    36.063532          120    17013.287    18995.697   -33416.934    324.51429    -1007.398    687.69835    72.284067    62.599839    36.063532    864.01665   -311768.44 
   46800    55.092555    163216.65    72.288529    72.288529    36.065758          120    16497.538    18438.983   -33768.583    484.40089   -1129.9782    640.63723    72.288529    62.603703    36.065758     389.3127   -311768.09 
   46850    55.345548     163267.4     72.29602     72.29602    36.069495          120     15517.31    17457.482   -34816.589    400.81115   -718.42609     878.9604     72.29602     62.61019    36.069495   -613.93264   -311768.17 
   46900    55.678427     163293.3    72.299842    72.299842    36.071402          120    15414.742    17493.146   -33999.686    58.959716   -1106.9954    923.70582    72.299842      62.6135    36.071402   -363.93239   -311768.16 
   46950    54.954757    163298.33    72.300585    72.300586    36.071773          120     16251.33    17935.727    -34194.47    464.75969   -867.68209    563.89699    72.300585    62.614144    36.071773   -2.4711191   -311765.95 
   47000    55.726814    163290.09    72.299368    72.299369    36.071166          120    15633.201     17333.34   -34905.282    597.37785   -1189.5438    515.00849    72.299368     62.61309    36.071166   -646.24716   -311768.08 
   47050    54.757602    163250.95    72.293591    72.293592    36.068284          120    16097.445    17861.079   -34055.503     236.2545   -1039.3759    356.63843    72.293591    62.608087    36.068284   -32.326571   -311767.41 
   47100    55.093052    163216.73     72.28854    72.288541    36.065764          120    16724.648    18862.544   -33599.152    187.99771   -804.68023    313.67004     72.28854    62.603713    36.065764    662.68002    -311768.6 
   47150    54.939772    163221.69    72.289272    72.289272    36.066129          120     16272.75    18043.996   -33891.146    431.88117   -762.74006    850.65126    72.289272    62.604346    36.066129    141.86667   -311768.95 
   47200    54.640364    163244.19    72.292594    72.292594    36.067786          120    16244.348    17459.169   -34234.829    211.45223   -768.25169    961.64718    72.292594    62.607223    36.067786   -177.10412   -311768.19 
   47250    54.692872    163255.25    72.294226    72.294227    36.068601          120    15783.123    17910.832   -34028.901    319.81451   -587.21137    595.75727    72.294226    62.608637    36.068601   -111.64868   -311768.79 
   47300     54.44622    163256.33    72.294386    72.294387     36.06868          120    16155.767     18075.65   -34204.412    602.08185   -1162.5848    1122.5032    72.294386    62.608776     36.06868    9.0017555   -311768.58 
   47350    54.427901    163258.69    72.294734    72.294735    36.068854          120    16172.566    18295.609   -34440.756    326.57475   -583.65198    609.23391    72.294734    62.609077    36.068854    9.1394862   -311767.79 
   47400    54.583851    163260.89    72.295059     72.29506    36.069016          120    16097.914    18086.468   -34032.072    132.86414   -1062.3196    747.47347    72.295059    62.609358    36.069016    50.770224   -311767.83 
   47450    54.815855    163260.71    72.295032    72.295032    36.069003          120    15916.581    17591.685   -34272.246    338.35274    -1088.261    468.10899    72.295032    62.609335    36.069003    -254.6602   -311767.43 
   47500     55.53199    163254.26     72.29408    72.294081    36.068528          120    16469.133    18526.085   -33092.071    641.66942   -1093.2091    499.69948     72.29408    62.608511    36.068528    634.38235   -311768.09 
   47550    55.466396    163269.27    72.296296    72.296296    36.069633          120        15893    17982.897   -34448.332    275.28003   -1204.1319    424.94894    72.296296    62.610429    36.069633    -190.8116   -311767.59 
   47600    55.219078    163269.42    72.296318    72.296318    36.069644          120    15230.164    17269.452   -34646.652    609.96969   -1251.7828     885.2265    72.296318    62.610449    36.069644   -715.67837   -311766.67 
   47650    55.080132    163237.29    72.291575    72.291575    36.067278          120      16317.5    18428.514   -33700.194     398.9201   -999.39489    569.35296    72.291575    62.606341    36.067278    348.60652   -311767.33 
   47700    54.897363    163221.21    72.289202    72.289202    36.066094          120    16454.499    18374.986   -33092.454    433.29251   -1066.5612    871.51812    72.289202    62.604286    36.066094    579.01022   -311768.01 
   47750    55.119295    163235.05    72.291244    72.291245    36.067113          120    16196.645    18071.866   -34175.425    310.15543   -993.88215    923.21314    72.291244    62.606055    36.067113    31.028594   -311768.71 
   47800    54.897145    163252.37    72.293801    72.293801    36.068388          120    16103.614    17840.075    -33880.46     236.5519   -783.69003    665.17786    72.293801    62.608269    36.068388    21.076437   -311768.38 
   47850    55.132483    163268.27    72.296148    72.296148    36.069559          120    16365.297    17608.829   -34073.358    448.20598   -1078.3017    755.55393    72.296148    62.610301    36.069559   -33.077304    -311769.5 
   47900    54.430468    163282.14    72.298195    72.298196    36.070581          120    15750.823    17939.048   -33917.479    579.76135   -844.71767    445.70833    72.298195    62.612074    36.070581   -75.869138   -311768.34 
   47950    54.834465    163286.83    72.298888    72.298888    36.070926          120    15835.447    17706.639    -34636.13    363.17657   -1166.7138    622.70092    72.298888    62.612674    36.070926   -364.68166   -311768.68 
   48000    54.675084    163272.09    72.296712    72.296712    36.069841          120    16115.273    18167.596    -34274.45    342.58229   -847.63675    920.97086    72.296712     62.61079    36.069841    2.8064518   -311767.94 
   48050    55.147556    163253.16    72.293917    72.293918    36.068447          120    15862.416    18261.214   -33582.429    574.12066   -856.16927    547.39629    72.293917    62.608369    36.068447    180.40033   -311768.38 
   48100    54.973199     163240.7    72.292078    72.292079    36.067529          120    16109.095    17860.504   -34485.028    716.82675   -830.48937    916.24437    72.292078    62.606777    36.067529   -171.80966   -311767.43 
   48150    55.430398    163231.91    72.290781    72.290781    36.066882          120    16307.249    18164.637   -33144.161    535.29796   -1383.3053    605.09532    72.290781    62.605653    36.066882    442.57482   -311767.85 
   48200    55.692581    163242.15    72.292293    72.292293    36.067636          120    16277.082    17823.066   -34361.629    227.50962   -861.11067    576.91731    72.292293    62.606962    36.067636   -87.160474   -311768.13 
   48250    55.238395    163248.66    72.293253    72.293254    36.068115          120    15902.273    17687.824   -34404.386    351.09242   -1128.2022    831.74579    72.293253    62.607794    36.068115    -271.4299   -311767.29 
   48300    54.875598    163248.72    72.293262    72.293262    36.068119          120    16024.056    18164.175   -33496.811    401.80665   -858.01851    684.97092    72.293262    62.607802    36.068119    230.47363   -311766.62 
   48350    55.214675    163254.01    72.294043    72.294044    36.068509          120    15949.441    18187.173     -34343.4    539.48406   -631.08608    630.52777    72.294043    62.608479    36.068509   -68.928655   -311768.34 
   48400    54.813792     163264.6    72.295606    72.295606    36.069289          120    16235.286    17406.895   -34321.511    453.88437   -991.70222    736.40957    72.295606    62.609832    36.069289   -226.44344   -311767.68 
   48450    54.985296    163275.34    72.297192    72.297192     36.07008          120    16197.674    17891.835   -34437.555    413.79636   -914.22768    879.65004    72.297192    62.611205     36.07008   -116.01533   -311768.63 
   48500    54.352437    163276.71    72.297393    72.297394    36.070181          120    15946.594    18168.213   -33468.467    678.33842    -565.8987    718.16624    72.297393     62.61138    36.070181    215.44642   -311768.33 
   48550    54.521078    163278.47    72.297654    72.297654    36.070311          120    15705.018    17529.697   -34476.382    17.530499   -960.63106    730.07498    72.297654    62.611605    36.070311   -413.88914    -311768.4 
   48600    54.542888     163267.5    72.296034    72.296035    36.069503          120    15944.445    17673.783   -33771.181    602.08823   -1002.0335    593.36563    72.296034    62.610203    36.069503   -50.984217   -311768.16 
   48650    54.833627    163252.68    72.293847    72.293847    36.068411          120    15430.332    17500.684    -34718.82    404.92207   -653.18174    480.03643    72.293847    62.608308    36.068411   -595.93452   -311768.54 
   48700    55.521577    163219.26    72.288913    72.288913     36.06595          120    16680.492    18302.288   -33657.665    476.18249   -1093.9318    920.08513    72.288913    62.604035     36.06595    441.70461   -311768.96 
   48750    55.474264       163198    72.285775    72.285776    36.064384          120    16369.029    18789.501   -33222.346      568.163   -841.22606    864.75819    72.285775    62.601318    36.064384     645.3946   -311768.51 
   48800     55.59915    163218.82    72.288849     72.28885    36.065918          120    16357.761    18272.247   -34062.287    397.97304   -1117.0808    778.06828    72.288849     62.60398    36.065918    189.24037   -311768.25 
   48850    55.736438    163260.16     72.29495    72.294951    36.068962          120    16059.116    18131.232    -33952.97    223.91081   -1228.1901    685.45769     72.29495    62.609264    36.068962     79.12613   -311768.19 
   48900    54.991204    163298.73    72.300643    72.300644    36.071802          120    15626.973    17632.633   -34581.847    196.16563   -898.80541    806.85011    72.300643    62.614195    36.071802   -440.74711   -311766.76 
   48950     55.23669    163312.29    72.302644    72.302645    36.072801          120    15634.389    17541.325   -34508.186    606.26478   -754.37936    720.91305    72.302644    62.615927    36.072801   -444.15721   -311767.37 
   49000    55.532227    163293.14    72.299818    72.299819     36.07139          120    15915.469    17719.437   -34011.542    531.61723    -830.1067    537.22789    72.299818     62.61348     36.07139   -125.54513   -311768.76 
   49050    54.904209    163256.32    72.294384    72.294385     36.06868          120    15703.387     18183.98   -33522.689    497.92079   -955.58022    636.05562    72.294384    62.608774     36.06868    121.55926   -311768.45 
   49100    54.974284    163233.91    72.291076    72.291077    36.067029          120    16271.968    17943.838    -33619.12    457.51804   -1140.4631    686.36486    72.291076    62.605909    36.067029    198.89557   -311769.13 
   49150     54.83503    163232.03    72.290798    72.290799     36.06689          120    16155.684    17972.244   -34324.814    308.05926   -873.81076    582.15455    72.290798    62.605668     36.06689   -65.628457   -311769.29 
   49200    54.519645    163233.87    72.291071    72.291071    36.067026          120    16425.055    18386.395   -33988.877    436.22608   -1146.8779    687.32409    72.291071    62.605904    36.067026    274.19099   -311768.22 
   49250    54.651247    163245.56    72.292796    72.292797    36.067887          120    16086.292    18099.054   -33624.339    562.42772   -974.31901    734.42189    72.292796    62.607399    36.067887    187.00278   -311768.57 
   49300    54.956946    163257.94    72.294623    72.294624    36.068799          120    16010.326    17931.561   -34033.659    422.51785   -707.43012     549.1363    72.294623    62.608981    36.068799   -30.590465    -311768.3 
   49350     54.88411    163261.53    72.295153    72.295154    36.069063          120    16371.054    17522.164   -34239.522    224.17524   -1370.3573    622.58208    72.295153     62.60944    36.069063    -115.4346   -311767.22 
   49400    55.406934     163258.9    72.294765    72.294766     36.06887          120    15959.555    17705.507   -34037.801    523.13808   -955.05726    649.56429    72.294765    62.609104     36.06887   -124.24655    -311767.8 
   49450     55.59041    163246.39    72.292919    72.292919    36.067948          120     16184.88    18387.709   -34061.169    403.39709   -937.54087    613.24244    72.292919    62.607505    36.067948    170.47313   -311768.18 
   49500    55.468503    163246.36    72.292914    72.292915    36.067946          120    16350.066    18248.493   -33832.613     375.9372   -1181.4536    509.97312    72.292914    62.607501    36.067946    255.31527   -311767.69 
   49550    55.170577    163259.76    72.294892    72.294892    36.068933          120    16527.381      17825.8   -34049.442    453.05564   -923.55335    790.27601    72.294892    62.609214    36.068933    101.24644   -311767.28 
   49600    55.168859     163268.9    72.296241    72.296241    36.069606          120    15689.319    17917.051   -34380.574    444.21941    -1076.176     707.3903    72.296241    62.610382    36.069606   -258.06793   -311767.91 
   49650    55.101322    163260.93    72.295065    72.295066    36.069019          120    15955.321    18339.656   -33881.756    234.09696   -945.59646    982.93698    72.295065    62.609363    36.069019    137.74055   -311768.32 
   49700    54.418773    163256.54    72.294417    72.294417    36.068696          120    16083.813    18093.675   -33888.979    313.46987   -371.63869    456.19243    72.294417    62.608802    36.068696    96.169757   -311767.91 
   49750    54.163615    163258.93    72.294769     72.29477    36.068872          120    16068.624     17903.38   -34054.841    580.39053   -762.22181     774.4623    72.294769    62.609107    36.068872   -27.612087   -311767.37 
   49800     54.38668    163255.35    72.294241    72.294241    36.068608          120    15549.378    18333.529    -34122.53    398.27957   -850.55768    666.08678    72.294241     62.60865    36.068608   -79.874321   -311768.27 
   49850    54.246622     163246.5    72.292935    72.292935    36.067956          120    16328.897    17560.417   -33930.115     475.9143   -975.78789    537.67064    72.292935    62.607519    36.067956   -13.600327    -311767.7 
   49900    54.795888    163242.56    72.292353    72.292353    36.067666          120     16227.83     18697.45   -33735.842    367.91225    -902.5354    750.70556    72.292353    62.607015    36.067666    396.47931   -311768.32 
   49950    54.869973    163257.82    72.294605    72.294606     36.06879          120    15789.139    17976.159   -34278.823    476.09977   -1120.0493    859.08997    72.294605    62.608965     36.06879    -171.1753   -311767.33 
   50000    55.444344    163267.18    72.295987    72.295987    36.069479          120    15979.143    17774.435   -34381.212    445.61167   -830.35678     887.4301    72.295987    62.610162    36.069479   -209.21139   -311768.09 
Loop time of 1871.93 on 16 procs for 50000 steps with 14848 atoms

Performance: 2.308 ns/day, 10.400 hours/ns, 26.710 timesteps/s
100.0% CPU use with 16 MPI tasks x 1 OpenMP threads

MPI task timing breakdown:
Section |  min time  |  avg time  |  max time  |%varavg| %total
---------------------------------------------------------------
Pair    | 1610       | 1644       | 1675.9     |  39.5 | 87.82
Bond    | 0.0080388  | 0.010421   | 0.01614    |   1.9 |  0.00
Kspace  | 122.28     | 153.85     | 187.75     | 128.8 |  8.22
Neigh   | 0.63476    | 0.64966    | 0.69357    |   1.6 |  0.03
Comm    | 31.226     | 31.497     | 31.729     |   2.5 |  1.68
Output  | 0.073365   | 0.081146   | 0.082924   |   0.8 |  0.00
Modify  | 18.608     | 29.982     | 39.646     | 166.9 |  1.60
Other   |            | 11.88      |            |       |  0.63

Nlocal:    928 ave 938 max 912 min
Histogram: 1 0 0 3 0 4 3 0 3 2
Nghost:    16284.9 ave 16306 max 16264 min
Histogram: 3 1 1 2 0 3 0 3 1 2
Neighs:    865837 ave 874832 max 848387 min
Histogram: 1 0 0 1 2 2 4 0 2 4

Total # of neighbors = 13853398
Ave neighs/atom = 933.014
Ave special neighs/atom = 0
Neighbor list builds = 18
Dangerous builds = 0
unfix           2
variable        probeTemp delete

Total wall time: 0:31:12
