ITEM: TIMESTEP
0
ITEM: NUMBER OF ATOMS
0
ITEM: BOX BOUNDS xy xz yz pp pp pp
-4.6040000000000001e+00 9.2080000000000002e+00 -4.6040000000000001e+00
0.0000000000000000e+00 7.9743620000000002e+00 0.0000000000000000e+00
0.0000000000000000e+00 9.1880000000000006e+00 0.0000000000000000e+00
ITEM: ATOMS c_pe 
ITEM: TIMESTEP
1
ITEM: NUMBER OF ATOMS
0
ITEM: BOX BOUNDS xy xz yz pp pp pp
-4.6040000000000001e+00 9.2080000000000002e+00 -4.6040000000000001e+00
0.0000000000000000e+00 7.9743620000000002e+00 0.0000000000000000e+00
0.0000000000000000e+00 9.1880000000000006e+00 0.0000000000000000e+00
ITEM: ATOMS c_pe 
ITEM: TIMESTEP
2
ITEM: NUMBER OF ATOMS
0
ITEM: BOX BOUNDS xy xz yz pp pp pp
-4.6040000000000001e+00 9.2080000000000002e+00 -4.6040000000000001e+00
0.0000000000000000e+00 7.9743620000000002e+00 0.0000000000000000e+00
0.0000000000000000e+00 9.1880000000000006e+00 0.0000000000000000e+00
ITEM: ATOMS c_pe 
ITEM: TIMESTEP
3
ITEM: NUMBER OF ATOMS
0
ITEM: BOX BOUNDS xy xz yz pp pp pp
-4.6040000000000001e+00 9.2080000000000002e+00 -4.6040000000000001e+00
0.0000000000000000e+00 7.9743620000000002e+00 0.0000000000000000e+00
0.0000000000000000e+00 9.1880000000000006e+00 0.0000000000000000e+00
ITEM: ATOMS c_pe 
ITEM: TIMESTEP
4
ITEM: NUMBER OF ATOMS
0
ITEM: BOX BOUNDS xy xz yz pp pp pp
-4.6040000000000001e+00 9.2080000000000002e+00 -4.6040000000000001e+00
0.0000000000000000e+00 7.9743620000000002e+00 0.0000000000000000e+00
0.0000000000000000e+00 9.1880000000000006e+00 0.0000000000000000e+00
ITEM: ATOMS c_pe 
ITEM: TIMESTEP
5
ITEM: NUMBER OF ATOMS
0
ITEM: BOX BOUNDS xy xz yz pp pp pp
-4.6040000000000001e+00 9.2080000000000002e+00 -4.6040000000000001e+00
0.0000000000000000e+00 7.9743620000000002e+00 0.0000000000000000e+00
0.0000000000000000e+00 9.1880000000000006e+00 0.0000000000000000e+00
ITEM: ATOMS c_pe 
