ITEM: TIMESTEP
0
ITEM: NUMBER OF ATOMS
61
ITEM: BOX BOUNDS xy xz yz pp pp pp
-4.6040000000000001e+00 9.2080000000000002e+00 -4.6040000000000001e+00
0.0000000000000000e+00 7.9743620000000002e+00 0.0000000000000000e+00
0.0000000000000000e+00 9.1880000000000006e+00 0.0000000000000000e+00
ITEM: ATOMS id type element x y z ix iy iz 
1 1 C 4.604 0 2.297 0 0 0 
2 1 C 4.604 0 6.891 0 0 0 
3 1 C 6.906 3.98718 2.297 -1 0 0 
4 1 C 6.906 3.98718 6.891 -1 0 0 
5 1 C 2.302 3.98718 2.297 0 0 0 
6 1 C 2.302 3.98718 6.891 0 0 0 
7 2 C 0 5.31624 2.297 0 0 0 
8 2 C 4.604 2.65812 6.891 0 0 0 
9 2 C 4.604 2.65812 2.297 0 0 0 
10 2 C 0 5.31624 6.891 0 0 0 
11 3 C 3.03865 0.921267 0 0 0 0 
12 3 C 1.56535 7.0531 0 0 0 0 
13 3 C 6.89083 2.17092 0 0 0 0 
14 3 C -2.28683 5.80344 0 0 0 0 
15 3 C 3.88251 4.88218 0 0 0 0 
16 3 C 0.721487 3.09219 0 0 0 0 
17 3 C -0.721487 3.09219 4.594 0 0 0 
18 3 C 5.32549 4.88218 4.594 0 0 0 
19 3 C -1.56535 7.0531 4.594 0 0 0 
20 3 C 6.16935 0.921267 4.594 0 0 0 
21 3 C 2.28683 5.80344 4.594 0 0 0 
22 3 C 2.31717 2.17092 4.594 0 0 0 
23 4 C 1.75743 1.87357 0 0 0 0 
24 4 C 2.84657 6.10079 0 0 0 0 
25 4 C 6.70672 0.585188 0 0 0 0 
26 4 C -2.10272 7.38917 0 0 0 0 
27 4 C 5.34785 5.5156 0 0 0 0 
28 4 C -0.743851 2.45876 0 0 0 0 
29 4 C 0.74385 2.45876 4.594 0 0 0 
30 4 C 3.86015 5.5156 4.594 0 0 0 
31 4 C -2.84657 6.10079 4.594 0 0 0 
32 4 C 7.45058 1.87357 4.594 0 0 0 
33 4 C 2.10272 7.38917 4.594 0 0 0 
34 4 C 2.50128 0.585188 4.594 0 0 0 
35 4 C 3.92629 1.15697 1.3432 0 0 0 
36 4 C 0.677713 6.81739 7.8448 0 0 0 
37 4 C 6.24289 2.82178 1.3432 0 0 0 
38 4 C -1.63889 5.15258 7.8448 0 0 0 
39 4 C 3.64283 3.99561 1.3432 0 0 0 
40 4 C 0.961175 3.97875 7.8448 0 0 0 
41 4 C 0.677713 6.81739 1.3432 0 0 0 
42 4 C 3.92629 1.15697 7.8448 0 0 0 
43 4 C -1.63889 5.15258 1.3432 0 0 0 
44 4 C 6.24289 2.82178 7.8448 0 0 0 
45 4 C 0.961175 3.97875 1.3432 0 0 0 
46 4 C 3.64283 3.99561 7.8448 0 0 0 
47 4 C -0.961175 3.97875 3.2508 0 0 0 
48 4 C 5.56517 3.99561 5.9372 0 0 0 
49 4 C -0.677713 6.81739 3.2508 0 0 0 
50 4 C 5.28171 1.15697 5.9372 0 0 0 
51 4 C 1.63889 5.15258 3.2508 0 0 0 
52 4 C 2.96511 2.82178 5.9372 0 0 0 
53 4 C 5.56517 3.99561 3.2508 0 0 0 
54 4 C -0.961175 3.97875 5.9372 0 0 0 
55 4 C 5.28171 1.15697 3.2508 0 0 0 
56 4 C -0.677713 6.81739 5.9372 0 0 0 
57 4 C 2.96511 2.82178 3.2508 0 0 0 
58 4 C 1.63889 5.15258 5.9372 0 0 0 
59 6 C 0.8 0 2.297 0 0 0 
60 5 C 1.38617 0 3.0537 0 0 0 
61 5 C 1.38617 0 1.5403 0 0 0 
ITEM: TIMESTEP
1
ITEM: NUMBER OF ATOMS
61
ITEM: BOX BOUNDS xy xz yz pp pp pp
-4.6030792000000007e+00 9.2075396000000005e+00 -4.6035396000000004e+00
3.9871810000000003e-04 7.9739632819000006e+00 0.0000000000000000e+00
4.5940000000000005e-04 9.1875406000000002e+00 0.0000000000000000e+00
ITEM: ATOMS id type element x y z ix iy iz 
1 1 C 4.604 0.000398718 2.29723 0 0 0 
2 1 C 4.604 0.000398718 6.89077 0 0 0 
3 1 C 6.90577 3.98718 2.29723 -1 0 0 
4 1 C 6.90577 3.98718 6.89077 -1 0 0 
5 1 C 2.30223 3.98718 2.29723 0 0 0 
6 1 C 2.30223 3.98718 6.89077 0 0 0 
7 2 C 0.000460612 5.31611 2.29723 0 0 0 
8 2 C 4.604 2.65825 6.89077 0 0 0 
9 2 C 4.604 2.65825 2.29723 0 0 0 
10 2 C 0.000460475 5.31611 6.89077 0 0 0 
11 3 C 3.03881 0.921574 0.000458884 0 0 0 
12 3 C 1.56565 7.05279 0.000459519 0 0 0 
13 3 C 6.8906 2.1711 0.000459548 0 0 0 
14 3 C -2.28614 5.80326 0.000459263 0 0 0 
15 3 C 3.88258 4.88209 0.000459554 0 0 0 
16 3 C 0.721876 3.09228 0.000459516 0 0 0 
17 3 C -0.720955 3.09228 4.594 0 0 0 
18 3 C 5.32542 4.88209 4.594 0 0 0 
19 3 C -1.56473 7.05279 4.594 0 0 0 
20 3 C 6.16919 0.921574 4.594 0 0 0 
21 3 C 2.28706 5.80326 4.594 0 0 0 
22 3 C 2.3174 2.1711 4.594 0 0 0 
23 4 C 1.75771 1.87379 0.000459473 0 0 0 
24 4 C 2.84675 6.10058 0.000459281 0 0 0 
25 4 C 6.70651 0.585528 0.000459293 0 0 0 
26 4 C -2.10205 7.38883 0.000459886 0 0 0 
27 4 C 5.34778 5.51545 0.000459318 0 0 0 
28 4 C -0.743316 2.45892 0.000459277 0 0 0 
29 4 C 0.744237 2.45892 4.594 0 0 0 
30 4 C 3.86022 5.51545 4.594 0 0 0 
31 4 C -2.84583 6.10058 4.594 0 0 0 
32 4 C 7.45029 1.87379 4.594 0 0 0 
33 4 C 2.10297 7.38883 4.594 0 0 0 
34 4 C 2.50149 0.585528 4.594 0 0 0 
35 4 C 3.92636 1.15726 1.34353 0 0 0 
36 4 C 0.678105 6.81711 7.84447 0 0 0 
37 4 C 6.24272 2.82189 1.34353 0 0 0 
38 4 C -1.63826 5.15247 7.84447 0 0 0 
39 4 C 3.64292 3.99561 1.34353 0 0 0 
40 4 C 0.96154 3.97875 7.84447 0 0 0 
41 4 C 0.678105 6.81711 1.34353 0 0 0 
42 4 C 3.92636 1.15726 7.84447 0 0 0 
43 4 C -1.63826 5.15247 1.34353 0 0 0 
44 4 C 6.24272 2.82189 7.84447 0 0 0 
45 4 C 0.96154 3.97875 1.34353 0 0 0 
46 4 C 3.64292 3.99561 7.84447 0 0 0 
47 4 C -0.960619 3.97875 3.25093 0 0 0 
48 4 C 5.56508 3.99561 5.93707 0 0 0 
49 4 C -0.677184 6.81711 3.25093 0 0 0 
50 4 C 5.28164 1.15726 5.93707 0 0 0 
51 4 C 1.63918 5.15247 3.25093 0 0 0 
52 4 C 2.96528 2.82189 5.93707 0 0 0 
53 4 C 5.56508 3.99561 3.25093 0 0 0 
54 4 C -0.960619 3.97875 5.93707 0 0 0 
55 4 C 5.28164 1.15726 3.25093 0 0 0 
56 4 C -0.677184 6.81711 5.93707 0 0 0 
57 4 C 2.96528 2.82189 3.25093 0 0 0 
58 4 C 1.63918 5.15247 5.93707 0 0 0 
59 6 C 0.800319 0.000398718 2.29723 0 0 0 
60 5 C 1.38653 0.000398815 3.05392 0 0 0 
61 5 C 1.38653 0.000398622 1.54054 0 0 0 
ITEM: TIMESTEP
2
ITEM: NUMBER OF ATOMS
61
ITEM: BOX BOUNDS xy xz yz pp pp pp
-4.6021584000000004e+00 9.2070792000000008e+00 -4.6030792000000007e+00
7.9743619999999996e-04 7.9735645638000010e+00 0.0000000000000000e+00
9.1880000000000011e-04 9.1870811999999997e+00 0.0000000000000000e+00
ITEM: ATOMS id type element x y z ix iy iz 
1 1 C 4.604 0.000797436 2.29746 0 0 0 
2 1 C 4.604 0.000797436 6.89054 0 0 0 
3 1 C 6.90554 3.98718 2.29746 -1 0 0 
4 1 C 6.90554 3.98718 6.89054 -1 0 0 
5 1 C 2.30246 3.98718 2.29746 0 0 0 
6 1 C 2.30246 3.98718 6.89054 0 0 0 
7 2 C 0.000921225 5.31598 2.29746 0 0 0 
8 2 C 4.604 2.65839 6.89054 0 0 0 
9 2 C 4.604 2.65839 2.29746 0 0 0 
10 2 C 0.000920951 5.31598 6.89054 0 0 0 
11 3 C 3.03897 0.921882 0.000917766 0 0 0 
12 3 C 1.56595 7.05248 0.00091904 0 0 0 
13 3 C 6.89037 2.17128 0.000919098 0 0 0 
14 3 C -2.28545 5.80308 0.000918524 0 0 0 
15 3 C 3.88266 4.88199 0.000919108 0 0 0 
16 3 C 0.722264 3.09237 0.000919033 0 0 0 
17 3 C -0.720423 3.09237 4.594 0 0 0 
18 3 C 5.32534 4.88199 4.594 0 0 0 
19 3 C -1.56411 7.05248 4.594 0 0 0 
20 3 C 6.16903 0.921881 4.594 0 0 0 
21 3 C 2.28729 5.80308 4.594 0 0 0 
22 3 C 2.31763 2.17129 4.594 0 0 0 
23 4 C 1.758 1.874 0.000918947 0 0 0 
24 4 C 2.84693 6.10036 0.000918561 0 0 0 
25 4 C 6.7063 0.585868 0.000918586 0 0 0 
26 4 C -2.10138 7.38849 0.000919774 0 0 0 
27 4 C 5.3477 5.51529 0.000918635 0 0 0 
28 4 C -0.742781 2.45907 0.000918553 0 0 0 
29 4 C 0.744623 2.45907 4.594 0 0 0 
30 4 C 3.8603 5.51529 4.594 0 0 0 
31 4 C -2.84508 6.10036 4.594 0 0 0 
32 4 C 7.45 1.874 4.594 0 0 0 
33 4 C 2.10322 7.38849 4.594 0 0 0 
34 4 C 2.5017 0.585868 4.594 0 0 0 
35 4 C 3.92642 1.15754 1.34385 0 0 0 
36 4 C 0.678497 6.81682 7.84415 0 0 0 
37 4 C 6.24256 2.82201 1.34385 0 0 0 
38 4 C -1.63764 5.15235 7.84415 0 0 0 
39 4 C 3.64302 3.99561 1.34385 0 0 0 
40 4 C 0.961905 3.97875 7.84415 0 0 0 
41 4 C 0.678497 6.81682 1.34385 0 0 0 
42 4 C 3.92642 1.15754 7.84415 0 0 0 
43 4 C -1.63764 5.15235 1.34385 0 0 0 
44 4 C 6.24256 2.82201 7.84415 0 0 0 
45 4 C 0.961905 3.97875 1.34385 0 0 0 
46 4 C 3.64302 3.99561 7.84415 0 0 0 
47 4 C -0.960063 3.97875 3.25107 0 0 0 
48 4 C 5.56498 3.99561 5.93693 0 0 0 
49 4 C -0.676656 6.81682 3.25107 0 0 0 
50 4 C 5.28158 1.15754 5.93693 0 0 0 
51 4 C 1.63948 5.15235 3.25107 0 0 0 
52 4 C 2.96544 2.82201 5.93693 0 0 0 
53 4 C 5.56498 3.99561 3.25107 0 0 0 
54 4 C -0.960063 3.97875 5.93693 0 0 0 
55 4 C 5.28158 1.15754 3.25107 0 0 0 
56 4 C -0.676655 6.81682 5.93693 0 0 0 
57 4 C 2.96544 2.82201 3.25107 0 0 0 
58 4 C 1.63948 5.15235 5.93693 0 0 0 
59 6 C 0.800637 0.000797436 2.29746 0 0 0 
60 5 C 1.38688 0.00079763 3.05414 0 0 0 
61 5 C 1.38688 0.000797242 1.54078 0 0 0 
ITEM: TIMESTEP
3
ITEM: NUMBER OF ATOMS
61
ITEM: BOX BOUNDS xy xz yz pp pp pp
-4.6012376000000010e+00 9.2066188000000011e+00 -4.6026188000000010e+00
1.1961542999999999e-03 7.9731658457000014e+00 0.0000000000000000e+00
1.3782000000000002e-03 9.1866217999999993e+00 0.0000000000000000e+00
ITEM: ATOMS id type element x y z ix iy iz 
1 1 C 4.604 0.00119615 2.29769 0 0 0 
2 1 C 4.604 0.00119615 6.89031 0 0 0 
3 1 C 6.90531 3.98718 2.29769 -1 0 0 
4 1 C 6.90531 3.98718 6.89031 -1 0 0 
5 1 C 2.30269 3.98718 2.29769 0 0 0 
6 1 C 2.30269 3.98718 6.89031 0 0 0 
7 2 C 0.00138184 5.31584 2.29769 0 0 0 
8 2 C 4.604 2.65852 6.89031 0 0 0 
9 2 C 4.604 2.65852 2.29769 0 0 0 
10 2 C 0.00138143 5.31584 6.89031 0 0 0 
11 3 C 3.03913 0.922189 0.00137664 0 0 0 
12 3 C 1.56625 7.05217 0.00137856 0 0 0 
13 3 C 6.89014 2.17147 0.00137865 0 0 0 
14 3 C -2.28476 5.80289 0.00137779 0 0 0 
15 3 C 3.88273 4.8819 0.00137866 0 0 0 
16 3 C 0.722653 3.09246 0.00137855 0 0 0 
17 3 C -0.719891 3.09246 4.594 0 0 0 
18 3 C 5.32527 4.8819 4.594 0 0 0 
19 3 C -1.56349 7.05217 4.594 0 0 0 
20 3 C 6.16887 0.922188 4.594 0 0 0 
21 3 C 2.28752 5.80289 4.594 0 0 0 
22 3 C 2.31786 2.17147 4.594 0 0 0 
23 4 C 1.75828 1.87421 0.00137842 0 0 0 
24 4 C 2.8471 6.10015 0.00137784 0 0 0 
25 4 C 6.70609 0.586209 0.00137788 0 0 0 
26 4 C -2.10071 7.38815 0.00137967 0 0 0 
27 4 C 5.34763 5.51514 0.00137795 0 0 0 
28 4 C -0.742246 2.45922 0.00137783 0 0 0 
29 4 C 0.745009 2.45922 4.594 0 0 0 
30 4 C 3.86037 5.51514 4.594 0 0 0 
31 4 C -2.84434 6.10015 4.594 0 0 0 
32 4 C 7.44972 1.87421 4.594 0 0 0 
33 4 C 2.10347 7.38815 4.594 0 0 0 
34 4 C 2.50191 0.586208 4.594 0 0 0 
35 4 C 3.92649 1.15782 1.34418 0 0 0 
36 4 C 0.678889 6.81654 7.84382 0 0 0 
37 4 C 6.2424 2.82213 1.34418 0 0 0 
38 4 C -1.63701 5.15223 7.84382 0 0 0 
39 4 C 3.64311 3.99561 1.34418 0 0 0 
40 4 C 0.962269 3.97876 7.84382 0 0 0 
41 4 C 0.678888 6.81654 1.34418 0 0 0 
42 4 C 3.92649 1.15782 7.84382 0 0 0 
43 4 C -1.63701 5.15223 1.34418 0 0 0 
44 4 C 6.2424 2.82213 7.84382 0 0 0 
45 4 C 0.96227 3.97876 1.34418 0 0 0 
46 4 C 3.64311 3.99561 7.84382 0 0 0 
47 4 C -0.959507 3.97876 3.2512 0 0 0 
48 4 C 5.56489 3.99561 5.9368 0 0 0 
49 4 C -0.676127 6.81654 3.2512 0 0 0 
50 4 C 5.28151 1.15782 5.9368 0 0 0 
51 4 C 1.63978 5.15223 3.2512 0 0 0 
52 4 C 2.9656 2.82213 5.9368 0 0 0 
53 4 C 5.56489 3.99561 3.2512 0 0 0 
54 4 C -0.959507 3.97876 5.9368 0 0 0 
55 4 C 5.28151 1.15782 3.2512 0 0 0 
56 4 C -0.676127 6.81654 5.9368 0 0 0 
57 4 C 2.9656 2.82213 3.2512 0 0 0 
58 4 C 1.63978 5.15223 5.9368 0 0 0 
59 6 C 0.800956 0.00119615 2.29769 0 0 0 
60 5 C 1.38723 0.00119645 3.05435 0 0 0 
61 5 C 1.38723 0.00119586 1.54102 0 0 0 
ITEM: TIMESTEP
4
ITEM: NUMBER OF ATOMS
61
ITEM: BOX BOUNDS xy xz yz pp pp pp
-4.6003168000000016e+00 9.2061584000000014e+00 -4.6021584000000013e+00
1.5948723999999999e-03 7.9727671276000018e+00 0.0000000000000000e+00
1.8376000000000002e-03 9.1861623999999988e+00 0.0000000000000000e+00
ITEM: ATOMS id type element x y z ix iy iz 
1 1 C 4.604 0.00159487 2.29792 0 0 0 
2 1 C 4.604 0.00159487 6.89008 0 0 0 
3 1 C 6.90508 3.98718 2.29792 -1 0 0 
4 1 C 6.90508 3.98718 6.89008 -1 0 0 
5 1 C 2.30292 3.98718 2.29792 0 0 0 
6 1 C 2.30292 3.98718 6.89008 0 0 0 
7 2 C 0.00184245 5.31571 2.29792 0 0 0 
8 2 C 4.604 2.65865 6.89008 0 0 0 
9 2 C 4.604 2.65865 2.29792 0 0 0 
10 2 C 0.0018419 5.31571 6.89008 0 0 0 
11 3 C 3.03929 0.922497 0.00183552 0 0 0 
12 3 C 1.56655 7.05187 0.00183808 0 0 0 
13 3 C 6.88991 2.17165 0.0018382 0 0 0 
14 3 C -2.28407 5.80271 0.00183705 0 0 0 
15 3 C 3.8828 4.88181 0.00183822 0 0 0 
16 3 C 0.723041 3.09255 0.00183807 0 0 0 
17 3 C -0.719359 3.09255 4.594 0 0 0 
18 3 C 5.3252 4.88181 4.594 0 0 0 
19 3 C -1.56287 7.05187 4.594 0 0 0 
20 3 C 6.16871 0.922495 4.594 0 0 0 
21 3 C 2.28775 5.80271 4.594 0 0 0 
22 3 C 2.31809 2.17165 4.594 0 0 0 
23 4 C 1.75857 1.87442 0.00183789 0 0 0 
24 4 C 2.84728 6.09994 0.00183712 0 0 0 
25 4 C 6.70588 0.586549 0.00183717 0 0 0 
26 4 C -2.10004 7.38781 0.00183956 0 0 0 
27 4 C 5.34755 5.51499 0.00183727 0 0 0 
28 4 C -0.741712 2.45938 0.0018371 0 0 0 
29 4 C 0.745395 2.45938 4.594 0 0 0 
30 4 C 3.86045 5.51499 4.594 0 0 0 
31 4 C -2.84359 6.09994 4.594 0 0 0 
32 4 C 7.44943 1.87442 4.594 0 0 0 
33 4 C 2.10372 7.38781 4.594 0 0 0 
34 4 C 2.50212 0.586548 4.594 0 0 0 
35 4 C 3.92656 1.1581 1.3445 0 0 0 
36 4 C 0.679281 6.81626 7.8435 0 0 0 
37 4 C 6.24223 2.82225 1.3445 0 0 0 
38 4 C -1.63639 5.15212 7.8435 0 0 0 
39 4 C 3.64321 3.99561 1.3445 0 0 0 
40 4 C 0.962634 3.97876 7.8435 0 0 0 
41 4 C 0.67928 6.81626 1.3445 0 0 0 
42 4 C 3.92656 1.1581 7.8435 0 0 0 
43 4 C -1.63639 5.15212 1.3445 0 0 0 
44 4 C 6.24223 2.82225 7.8435 0 0 0 
45 4 C 0.962634 3.97876 1.3445 0 0 0 
46 4 C 3.64321 3.99561 7.8435 0 0 0 
47 4 C -0.958951 3.97876 3.25134 0 0 0 
48 4 C 5.56479 3.99561 5.93666 0 0 0 
49 4 C -0.675599 6.81626 3.25134 0 0 0 
50 4 C 5.28144 1.1581 5.93666 0 0 0 
51 4 C 1.64007 5.15212 3.25134 0 0 0 
52 4 C 2.96577 2.82225 5.93666 0 0 0 
53 4 C 5.56479 3.99561 3.25134 0 0 0 
54 4 C -0.958951 3.97876 5.93666 0 0 0 
55 4 C 5.28144 1.1581 3.25134 0 0 0 
56 4 C -0.675598 6.81626 5.93666 0 0 0 
57 4 C 2.96577 2.82225 3.25134 0 0 0 
58 4 C 1.64007 5.15212 5.93666 0 0 0 
59 6 C 0.801274 0.00159487 2.29792 0 0 0 
60 5 C 1.38758 0.00159526 3.05457 0 0 0 
61 5 C 1.38758 0.00159448 1.54126 0 0 0 
ITEM: TIMESTEP
5
ITEM: NUMBER OF ATOMS
61
ITEM: BOX BOUNDS xy xz yz pp pp pp
-4.5993960000000005e+00 9.2056980000000017e+00 -4.6016980000000007e+00
1.9935904999999997e-03 7.9723684095000023e+00 0.0000000000000000e+00
2.2970000000000004e-03 9.1857029999999984e+00 0.0000000000000000e+00
ITEM: ATOMS id type element x y z ix iy iz 
1 1 C 4.604 0.00199359 2.29815 0 0 0 
2 1 C 4.604 0.00199359 6.88985 0 0 0 
3 1 C 6.90485 3.98718 2.29815 -1 0 0 
4 1 C 6.90485 3.98718 6.88985 -1 0 0 
5 1 C 2.30315 3.98718 2.29815 0 0 0 
6 1 C 2.30315 3.98718 6.88985 0 0 0 
7 2 C 0.00230307 5.31558 2.29815 0 0 0 
8 2 C 4.604 2.65879 6.88985 0 0 0 
9 2 C 4.604 2.65879 2.29815 0 0 0 
10 2 C 0.00230238 5.31558 6.88985 0 0 0 
11 3 C 3.03945 0.922805 0.0022944 0 0 0 
12 3 C 1.56686 7.05156 0.0022976 0 0 0 
13 3 C 6.88968 2.17183 0.00229775 0 0 0 
14 3 C -2.28338 5.80253 0.00229631 0 0 0 
15 3 C 3.88287 4.88172 0.00229778 0 0 0 
16 3 C 0.72343 3.09264 0.00229759 0 0 0 
17 3 C -0.718827 3.09264 4.594 0 0 0 
18 3 C 5.32513 4.88172 4.594 0 0 0 
19 3 C -1.56225 7.05156 4.594 0 0 0 
20 3 C 6.16855 0.922803 4.594 0 0 0 
21 3 C 2.28798 5.80253 4.594 0 0 0 
22 3 C 2.31832 2.17184 4.594 0 0 0 
23 4 C 1.75885 1.87463 0.00229737 0 0 0 
24 4 C 2.84745 6.09973 0.0022964 0 0 0 
25 4 C 6.70567 0.58689 0.00229646 0 0 0 
26 4 C -2.09937 7.38747 0.00229945 0 0 0 
27 4 C 5.34748 5.51483 0.00229658 0 0 0 
28 4 C -0.741177 2.45953 0.00229638 0 0 0 
29 4 C 0.745782 2.45953 4.594 0 0 0 
30 4 C 3.86052 5.51483 4.594 0 0 0 
31 4 C -2.84285 6.09973 4.594 0 0 0 
32 4 C 7.44915 1.87463 4.594 0 0 0 
33 4 C 2.10397 7.38747 4.594 0 0 0 
34 4 C 2.50233 0.586888 4.594 0 0 0 
35 4 C 3.92663 1.15839 1.34483 0 0 0 
36 4 C 0.679672 6.81597 7.84317 0 0 0 
37 4 C 6.24207 2.82236 1.34483 0 0 0 
38 4 C -1.63577 5.152 7.84317 0 0 0 
39 4 C 3.6433 3.9956 1.34483 0 0 0 
40 4 C 0.962999 3.97876 7.84317 0 0 0 
41 4 C 0.679672 6.81597 1.34483 0 0 0 
42 4 C 3.92663 1.15839 7.84317 0 0 0 
43 4 C -1.63577 5.152 1.34483 0 0 0 
44 4 C 6.24207 2.82236 7.84317 0 0 0 
45 4 C 0.962999 3.97876 1.34483 0 0 0 
46 4 C 3.6433 3.9956 7.84317 0 0 0 
47 4 C -0.958396 3.97876 3.25147 0 0 0 
48 4 C 5.5647 3.9956 5.93653 0 0 0 
49 4 C -0.67507 6.81598 3.25147 0 0 0 
50 4 C 5.28137 1.15839 5.93653 0 0 0 
51 4 C 1.64037 5.152 3.25147 0 0 0 
52 4 C 2.96593 2.82236 5.93653 0 0 0 
53 4 C 5.5647 3.9956 3.25147 0 0 0 
54 4 C -0.958395 3.97876 5.93653 0 0 0 
55 4 C 5.28137 1.15839 3.25147 0 0 0 
56 4 C -0.675069 6.81597 5.93653 0 0 0 
57 4 C 2.96593 2.82236 3.25147 0 0 0 
58 4 C 1.64037 5.152 5.93653 0 0 0 
59 6 C 0.801592 0.00199359 2.29815 0 0 0 
60 5 C 1.38794 0.00199408 3.05479 0 0 0 
61 5 C 1.38794 0.0019931 1.54151 0 0 0 
ITEM: TIMESTEP
6
ITEM: NUMBER OF ATOMS
61
ITEM: BOX BOUNDS xy xz yz pp pp pp
-4.5984752000000011e+00 9.2052376000000020e+00 -4.6012376000000010e+00
2.3923085999999994e-03 7.9719696914000027e+00 0.0000000000000000e+00
2.7564000000000004e-03 9.1852435999999980e+00 0.0000000000000000e+00
ITEM: ATOMS id type element x y z ix iy iz 
1 1 C 4.604 0.00239231 2.29838 0 0 0 
2 1 C 4.604 0.00239231 6.88962 0 0 0 
3 1 C 6.90462 3.98718 2.29838 -1 0 0 
4 1 C 6.90462 3.98718 6.88962 -1 0 0 
5 1 C 2.30338 3.98718 2.29838 0 0 0 
6 1 C 2.30338 3.98718 6.88962 0 0 0 
7 2 C 0.00276369 5.31544 2.29838 0 0 0 
8 2 C 4.604 2.65892 6.88962 0 0 0 
9 2 C 4.604 2.65892 2.29838 0 0 0 
10 2 C 0.00276286 5.31544 6.88962 0 0 0 
11 3 C 3.03961 0.923112 0.00275327 0 0 0 
12 3 C 1.56716 7.05125 0.00275712 0 0 0 
13 3 C 6.88945 2.17202 0.0027573 0 0 0 
14 3 C -2.28269 5.80234 0.00275557 0 0 0 
15 3 C 3.88294 4.88163 0.00275733 0 0 0 
16 3 C 0.723818 3.09273 0.00275711 0 0 0 
17 3 C -0.718295 3.09273 4.594 0 0 0 
18 3 C 5.32506 4.88163 4.594 0 0 0 
19 3 C -1.56163 7.05125 4.594 0 0 0 
20 3 C 6.1684 0.92311 4.594 0 0 0 
21 3 C 2.28821 5.80235 4.594 0 0 0 
22 3 C 2.31855 2.17202 4.594 0 0 0 
23 4 C 1.75914 1.87484 0.00275684 0 0 0 
24 4 C 2.84763 6.09952 0.00275568 0 0 0 
25 4 C 6.70546 0.58723 0.00275575 0 0 0 
26 4 C -2.0987 7.38713 0.00275935 0 0 0 
27 4 C 5.34741 5.51468 0.0027559 0 0 0 
28 4 C -0.740642 2.45968 0.00275565 0 0 0 
29 4 C 0.746168 2.45968 4.594 0 0 0 
30 4 C 3.8606 5.51468 4.594 0 0 0 
31 4 C -2.8421 6.09952 4.594 0 0 0 
32 4 C 7.44886 1.87485 4.594 0 0 0 
33 4 C 2.10422 7.38713 4.594 0 0 0 
34 4 C 2.50254 0.587229 4.594 0 0 0 
35 4 C 3.9267 1.15867 1.34515 0 0 0 
36 4 C 0.680064 6.81569 7.84285 0 0 0 
37 4 C 6.2419 2.82248 1.34515 0 0 0 
38 4 C -1.63514 5.15188 7.84285 0 0 0 
39 4 C 3.6434 3.9956 1.34515 0 0 0 
40 4 C 0.963364 3.97876 7.84285 0 0 0 
41 4 C 0.680063 6.81569 1.34515 0 0 0 
42 4 C 3.9267 1.15867 7.84285 0 0 0 
43 4 C -1.63514 5.15188 1.34515 0 0 0 
44 4 C 6.2419 2.82248 7.84285 0 0 0 
45 4 C 0.963364 3.97876 1.34515 0 0 0 
46 4 C 3.6434 3.9956 7.84285 0 0 0 
47 4 C -0.95784 3.97876 3.25161 0 0 0 
48 4 C 5.5646 3.9956 5.93639 0 0 0 
49 4 C -0.674542 6.81569 3.25161 0 0 0 
50 4 C 5.2813 1.15867 5.93639 0 0 0 
51 4 C 1.64067 5.15188 3.25161 0 0 0 
52 4 C 2.9661 2.82248 5.93639 0 0 0 
53 4 C 5.5646 3.9956 3.25161 0 0 0 
54 4 C -0.957839 3.97876 5.93639 0 0 0 
55 4 C 5.2813 1.15867 3.25161 0 0 0 
56 4 C -0.67454 6.81569 5.93639 0 0 0 
57 4 C 2.9661 2.82248 3.25161 0 0 0 
58 4 C 1.64067 5.15188 5.93639 0 0 0 
59 6 C 0.80191 0.00239231 2.29838 0 0 0 
60 5 C 1.38829 0.00239289 3.05501 0 0 0 
61 5 C 1.38829 0.00239172 1.54175 0 0 0 
ITEM: TIMESTEP
7
ITEM: NUMBER OF ATOMS
61
ITEM: BOX BOUNDS xy xz yz pp pp pp
-4.5975544000000026e+00 9.2047772000000023e+00 -4.6007772000000022e+00
2.7910266999999992e-03 7.9715709733000031e+00 0.0000000000000000e+00
3.2158000000000009e-03 9.1847841999999975e+00 0.0000000000000000e+00
ITEM: ATOMS id type element x y z ix iy iz 
1 1 C 4.604 0.00279103 2.29861 0 0 0 
2 1 C 4.604 0.00279103 6.88939 0 0 0 
3 1 C 6.90439 3.98718 2.29861 -1 0 0 
4 1 C 6.90439 3.98718 6.88939 -1 0 0 
5 1 C 2.30361 3.98718 2.29861 0 0 0 
6 1 C 2.30361 3.98718 6.88939 0 0 0 
7 2 C 0.0032243 5.31531 2.29861 0 0 0 
8 2 C 4.604 2.65905 6.88939 0 0 0 
9 2 C 4.604 2.65905 2.29861 0 0 0 
10 2 C 0.00322333 5.31531 6.88939 0 0 0 
11 3 C 3.03977 0.92342 0.00321214 0 0 0 
12 3 C 1.56746 7.05095 0.00321665 0 0 0 
13 3 C 6.88922 2.1722 0.00321685 0 0 0 
14 3 C -2.282 5.80216 0.00321483 0 0 0 
15 3 C 3.88301 4.88154 0.00321689 0 0 0 
16 3 C 0.724207 3.09283 0.00321662 0 0 0 
17 3 C -0.717763 3.09283 4.594 0 0 0 
18 3 C 5.32498 4.88154 4.594 0 0 0 
19 3 C -1.56101 7.05094 4.594 0 0 0 
20 3 C 6.16824 0.923417 4.594 0 0 0 
21 3 C 2.28845 5.80216 4.594 0 0 0 
22 3 C 2.31878 2.1722 4.594 0 0 0 
23 4 C 1.75942 1.87505 0.00321632 0 0 0 
24 4 C 2.8478 6.09931 0.00321495 0 0 0 
25 4 C 6.70525 0.587571 0.00321504 0 0 0 
26 4 C -2.09803 7.38679 0.00321924 0 0 0 
27 4 C 5.34733 5.51453 0.00321522 0 0 0 
28 4 C -0.740107 2.45984 0.00321493 0 0 0 
29 4 C 0.746554 2.45984 4.594 0 0 0 
30 4 C 3.86067 5.51453 4.594 0 0 0 
31 4 C -2.84136 6.09931 4.594 0 0 0 
32 4 C 7.44858 1.87506 4.594 0 0 0 
33 4 C 2.10447 7.38679 4.594 0 0 0 
34 4 C 2.50275 0.587569 4.594 0 0 0 
35 4 C 3.92676 1.15895 1.34548 0 0 0 
36 4 C 0.680456 6.81541 7.84252 0 0 0 
37 4 C 6.24174 2.8226 1.34548 0 0 0 
38 4 C -1.63452 5.15176 7.84252 0 0 0 
39 4 C 3.64349 3.9956 1.34548 0 0 0 
40 4 C 0.963729 3.97876 7.84252 0 0 0 
41 4 C 0.680455 6.81541 1.34548 0 0 0 
42 4 C 3.92677 1.15895 7.84252 0 0 0 
43 4 C -1.63452 5.15177 1.34548 0 0 0 
44 4 C 6.24174 2.8226 7.84252 0 0 0 
45 4 C 0.963729 3.97876 1.34548 0 0 0 
46 4 C 3.64349 3.9956 7.84252 0 0 0 
47 4 C -0.957284 3.97876 3.25174 0 0 0 
48 4 C 5.56451 3.9956 5.93626 0 0 0 
49 4 C -0.674013 6.81541 3.25174 0 0 0 
50 4 C 5.28123 1.15895 5.93626 0 0 0 
51 4 C 1.64096 5.15176 3.25174 0 0 0 
52 4 C 2.96626 2.8226 5.93626 0 0 0 
53 4 C 5.56451 3.9956 3.25174 0 0 0 
54 4 C -0.957284 3.97876 5.93626 0 0 0 
55 4 C 5.28123 1.15895 3.25174 0 0 0 
56 4 C -0.674011 6.81541 5.93626 0 0 0 
57 4 C 2.96626 2.8226 3.25174 0 0 0 
58 4 C 1.64096 5.15176 5.93626 0 0 0 
59 6 C 0.802228 0.00279103 2.29861 0 0 0 
60 5 C 1.38864 0.00279171 3.05523 0 0 0 
61 5 C 1.38864 0.00279034 1.54199 0 0 0 
ITEM: TIMESTEP
8
ITEM: NUMBER OF ATOMS
61
ITEM: BOX BOUNDS xy xz yz pp pp pp
-4.5966336000000023e+00 9.2043168000000026e+00 -4.6003168000000025e+00
3.1897447999999990e-03 7.9711722552000035e+00 0.0000000000000000e+00
3.6752000000000009e-03 9.1843247999999971e+00 0.0000000000000000e+00
ITEM: ATOMS id type element x y z ix iy iz 
1 1 C 4.604 0.00318974 2.29884 0 0 0 
2 1 C 4.604 0.00318974 6.88916 0 0 0 
3 1 C 6.90416 3.98718 2.29884 -1 0 0 
4 1 C 6.90416 3.98718 6.88916 -1 0 0 
5 1 C 2.30384 3.98718 2.29884 0 0 0 
6 1 C 2.30384 3.98718 6.88916 0 0 0 
7 2 C 0.00368492 5.31518 2.29884 0 0 0 
8 2 C 4.604 2.65918 6.88916 0 0 0 
9 2 C 4.604 2.65919 2.29884 0 0 0 
10 2 C 0.00368381 5.31518 6.88916 0 0 0 
11 3 C 3.03993 0.923728 0.00367101 0 0 0 
12 3 C 1.56776 7.05064 0.00367617 0 0 0 
13 3 C 6.88899 2.17238 0.00367641 0 0 0 
14 3 C -2.28131 5.80198 0.00367408 0 0 0 
15 3 C 3.88309 4.88145 0.00367645 0 0 0 
16 3 C 0.724595 3.09292 0.00367614 0 0 0 
17 3 C -0.717231 3.09292 4.594 0 0 0 
18 3 C 5.32491 4.88144 4.594 0 0 0 
19 3 C -1.56039 7.05063 4.594 0 0 0 
20 3 C 6.16808 0.923724 4.594 0 0 0 
21 3 C 2.28868 5.80198 4.594 0 0 0 
22 3 C 2.31901 2.17239 4.594 0 0 0 
23 4 C 1.75971 1.87527 0.00367579 0 0 0 
24 4 C 2.84798 6.09909 0.00367423 0 0 0 
25 4 C 6.70504 0.587911 0.00367433 0 0 0 
26 4 C -2.09736 7.38645 0.00367914 0 0 0 
27 4 C 5.34726 5.51437 0.00367453 0 0 0 
28 4 C -0.739573 2.45999 0.0036742 0 0 0 
29 4 C 0.74694 2.45999 4.594 0 0 0 
30 4 C 3.86074 5.51437 4.594 0 0 0 
31 4 C -2.84061 6.0991 4.594 0 0 0 
32 4 C 7.44829 1.87527 4.594 0 0 0 
33 4 C 2.10472 7.38645 4.594 0 0 0 
34 4 C 2.50296 0.587909 4.594 0 0 0 
35 4 C 3.92683 1.15923 1.3458 0 0 0 
36 4 C 0.680848 6.81513 7.8422 0 0 0 
37 4 C 6.24157 2.82272 1.3458 0 0 0 
38 4 C -1.63389 5.15165 7.8422 0 0 0 
39 4 C 3.64359 3.9956 1.3458 0 0 0 
40 4 C 0.964094 3.97876 7.8422 0 0 0 
41 4 C 0.680847 6.81513 1.3458 0 0 0 
42 4 C 3.92683 1.15924 7.8422 0 0 0 
43 4 C -1.63389 5.15165 1.3458 0 0 0 
44 4 C 6.24158 2.82272 7.8422 0 0 0 
45 4 C 0.964094 3.97876 1.3458 0 0 0 
46 4 C 3.64359 3.9956 7.8422 0 0 0 
47 4 C -0.956728 3.97876 3.25187 0 0 0 
48 4 C 5.56441 3.9956 5.93613 0 0 0 
49 4 C -0.673485 6.81513 3.25187 0 0 0 
50 4 C 5.28116 1.15924 5.93613 0 0 0 
51 4 C 1.64126 5.15165 3.25187 0 0 0 
52 4 C 2.96642 2.82271 5.93613 0 0 0 
53 4 C 5.56441 3.9956 3.25187 0 0 0 
54 4 C -0.956728 3.97876 5.93613 0 0 0 
55 4 C 5.28116 1.15924 3.25187 0 0 0 
56 4 C -0.673483 6.81513 5.93613 0 0 0 
57 4 C 2.96642 2.82271 3.25187 0 0 0 
58 4 C 1.64126 5.15165 5.93613 0 0 0 
59 6 C 0.802545 0.00318974 2.29884 0 0 0 
60 5 C 1.389 0.00319053 3.05545 0 0 0 
61 5 C 1.389 0.00318896 1.54223 0 0 0 
ITEM: TIMESTEP
9
ITEM: NUMBER OF ATOMS
61
ITEM: BOX BOUNDS xy xz yz pp pp pp
-4.5957128000000020e+00 9.2038564000000029e+00 -4.5998564000000020e+00
3.5884628999999987e-03 7.9707735371000039e+00 0.0000000000000000e+00
4.1346000000000013e-03 9.1838653999999966e+00 0.0000000000000000e+00
ITEM: ATOMS id type element x y z ix iy iz 
1 1 C 4.604 0.00358846 2.29907 0 0 0 
2 1 C 4.604 0.00358846 6.88893 0 0 0 
3 1 C 6.90393 3.98718 2.29907 -1 0 0 
4 1 C 6.90393 3.98718 6.88893 -1 0 0 
5 1 C 2.30407 3.98718 2.29907 0 0 0 
6 1 C 2.30407 3.98718 6.88893 0 0 0 
7 2 C 0.00414554 5.31504 2.29907 0 0 0 
8 2 C 4.604 2.65932 6.88893 0 0 0 
9 2 C 4.604 2.65932 2.29907 0 0 0 
10 2 C 0.00414429 5.31504 6.88893 0 0 0 
11 3 C 3.04009 0.924035 0.00412988 0 0 0 
12 3 C 1.56806 7.05033 0.00413569 0 0 0 
13 3 C 6.88876 2.17257 0.00413596 0 0 0 
14 3 C -2.28062 5.80179 0.00413334 0 0 0 
15 3 C 3.88316 4.88135 0.00413601 0 0 0 
16 3 C 0.724984 3.09301 0.00413566 0 0 0 
17 3 C -0.716699 3.09301 4.594 0 0 0 
18 3 C 5.32484 4.88135 4.594 0 0 0 
19 3 C -1.55977 7.05033 4.594 0 0 0 
20 3 C 6.16792 0.924031 4.594 0 0 0 
21 3 C 2.28891 5.8018 4.594 0 0 0 
22 3 C 2.31924 2.17257 4.594 0 0 0 
23 4 C 1.75999 1.87548 0.00413527 0 0 0 
24 4 C 2.84815 6.09888 0.00413351 0 0 0 
25 4 C 6.70483 0.588251 0.00413362 0 0 0 
26 4 C -2.09669 7.38611 0.00413905 0 0 0 
27 4 C 5.34718 5.51422 0.00413385 0 0 0 
28 4 C -0.739038 2.46014 0.00413347 0 0 0 
29 4 C 0.747327 2.46014 4.594 0 0 0 
30 4 C 3.86082 5.51422 4.594 0 0 0 
31 4 C -2.83986 6.09888 4.594 0 0 0 
32 4 C 7.44801 1.87548 4.594 0 0 0 
33 4 C 2.10497 7.38611 4.594 0 0 0 
34 4 C 2.50317 0.588249 4.594 0 0 0 
35 4 C 3.9269 1.15952 1.34613 0 0 0 
36 4 C 0.68124 6.81484 7.84187 0 0 0 
37 4 C 6.24141 2.82283 1.34613 0 0 0 
38 4 C -1.63327 5.15153 7.84187 0 0 0 
39 4 C 3.64368 3.9956 1.34613 0 0 0 
40 4 C 0.964459 3.97876 7.84187 0 0 0 
41 4 C 0.681238 6.81484 1.34613 0 0 0 
42 4 C 3.9269 1.15952 7.84187 0 0 0 
43 4 C -1.63327 5.15153 1.34613 0 0 0 
44 4 C 6.24141 2.82283 7.84187 0 0 0 
45 4 C 0.964459 3.97876 1.34613 0 0 0 
46 4 C 3.64368 3.9956 7.84187 0 0 0 
47 4 C -0.956172 3.97876 3.25201 0 0 0 
48 4 C 5.56431 3.9956 5.93599 0 0 0 
49 4 C -0.672956 6.81485 3.25201 0 0 0 
50 4 C 5.2811 1.15952 5.93599 0 0 0 
51 4 C 1.64155 5.15153 3.25201 0 0 0 
52 4 C 2.96659 2.82283 5.93599 0 0 0 
53 4 C 5.56431 3.9956 3.25201 0 0 0 
54 4 C -0.956172 3.97876 5.93599 0 0 0 
55 4 C 5.28109 1.15952 3.25201 0 0 0 
56 4 C -0.672954 6.81484 5.93599 0 0 0 
57 4 C 2.96659 2.82283 3.25201 0 0 0 
58 4 C 1.64156 5.15153 5.93599 0 0 0 
59 6 C 0.802862 0.00358846 2.29907 0 0 0 
60 5 C 1.38935 0.00358935 3.05567 0 0 0 
61 5 C 1.38935 0.00358758 1.54246 0 0 0 
ITEM: TIMESTEP
10
ITEM: NUMBER OF ATOMS
61
ITEM: BOX BOUNDS xy xz yz pp pp pp
-4.5947920000000027e+00 9.2033960000000032e+00 -4.5993960000000023e+00
3.9871809999999985e-03 7.9703748190000043e+00 0.0000000000000000e+00
4.5940000000000017e-03 9.1834059999999962e+00 0.0000000000000000e+00
ITEM: ATOMS id type element x y z ix iy iz 
1 1 C 4.60401 0.00398718 2.2993 0 0 0 
2 1 C 4.604 0.00398718 6.8887 0 0 0 
3 1 C 6.9037 3.98718 2.2993 -1 0 0 
4 1 C 6.9037 3.98718 6.8887 -1 0 0 
5 1 C 2.3043 3.98718 2.2993 0 0 0 
6 1 C 2.3043 3.98718 6.8887 0 0 0 
7 2 C 0.00460616 5.31491 2.2993 0 0 0 
8 2 C 4.604 2.65945 6.8887 0 0 0 
9 2 C 4.604 2.65945 2.2993 0 0 0 
10 2 C 0.00460477 5.31491 6.8887 0 0 0 
11 3 C 3.04024 0.924343 0.00458874 0 0 0 
12 3 C 1.56837 7.05002 0.00459522 0 0 0 
13 3 C 6.88853 2.17275 0.00459551 0 0 0 
14 3 C -2.27993 5.80161 0.0045926 0 0 0 
15 3 C 3.88323 4.88126 0.00459557 0 0 0 
16 3 C 0.725373 3.0931 0.00459519 0 0 0 
17 3 C -0.716167 3.0931 4.594 0 0 0 
18 3 C 5.32477 4.88126 4.594 0 0 0 
19 3 C -1.55915 7.05002 4.59401 0 0 0 
20 3 C 6.16776 0.924338 4.594 0 0 0 
21 3 C 2.28914 5.80161 4.594 0 0 0 
22 3 C 2.31947 2.17275 4.594 0 0 0 
23 4 C 1.76028 1.87569 0.00459475 0 0 0 
24 4 C 2.84833 6.09867 0.00459278 0 0 0 
25 4 C 6.70462 0.588592 0.00459291 0 0 0 
26 4 C -2.09601 7.38577 0.00459895 0 0 0 
27 4 C 5.34711 5.51407 0.00459316 0 0 0 
28 4 C -0.738503 2.4603 0.00459274 0 0 0 
29 4 C 0.747713 2.4603 4.594 0 0 0 
30 4 C 3.86089 5.51407 4.594 0 0 0 
31 4 C -2.83912 6.09867 4.594 0 0 0 
32 4 C 7.44772 1.87569 4.594 0 0 0 
33 4 C 2.10522 7.38577 4.594 0 0 0 
34 4 C 2.50338 0.588589 4.59399 0 0 0 
35 4 C 3.92697 1.1598 1.34645 0 0 0 
36 4 C 0.681631 6.81456 7.84155 0 0 0 
37 4 C 6.24125 2.82295 1.34645 0 0 0 
38 4 C -1.63264 5.15141 7.84155 0 0 0 
39 4 C 3.64378 3.9956 1.34645 0 0 0 
40 4 C 0.964823 3.97876 7.84155 0 0 0 
41 4 C 0.68163 6.81456 1.34645 0 0 0 
42 4 C 3.92697 1.1598 7.84155 0 0 0 
43 4 C -1.63264 5.15141 1.34645 0 0 0 
44 4 C 6.24125 2.82295 7.84155 0 0 0 
45 4 C 0.964824 3.97877 1.34645 0 0 0 
46 4 C 3.64378 3.9956 7.84155 0 0 0 
47 4 C -0.955616 3.97877 3.25214 0 0 0 
48 4 C 5.56422 3.9956 5.93586 0 0 0 
49 4 C -0.672428 6.81456 3.25214 0 0 0 
50 4 C 5.28103 1.1598 5.93586 0 0 0 
51 4 C 1.64185 5.15141 3.25214 0 0 0 
52 4 C 2.96675 2.82295 5.93586 0 0 0 
53 4 C 5.56422 3.9956 3.25214 0 0 0 
54 4 C -0.955616 3.97877 5.93586 0 0 0 
55 4 C 5.28103 1.1598 3.25214 0 0 0 
56 4 C -0.672425 6.81456 5.93586 0 0 0 
57 4 C 2.96675 2.82295 3.25214 0 0 0 
58 4 C 1.64185 5.15141 5.93586 0 0 0 
59 6 C 0.803179 0.00398718 2.2993 0 0 0 
60 5 C 1.3897 0.00398817 3.05589 0 0 0 
61 5 C 1.3897 0.00398619 1.5427 0 0 0 
ITEM: TIMESTEP
11
ITEM: NUMBER OF ATOMS
61
ITEM: BOX BOUNDS xy xz yz pp pp pp
-4.5938712000000024e+00 9.2029356000000035e+00 -4.5989356000000026e+00
4.3858990999999983e-03 7.9699761009000047e+00 0.0000000000000000e+00
5.0534000000000022e-03 9.1829465999999957e+00 0.0000000000000000e+00
ITEM: ATOMS id type element x y z ix iy iz 
1 1 C 4.60401 0.0043859 2.29953 0 0 0 
2 1 C 4.604 0.0043859 6.88847 0 0 0 
3 1 C 6.90347 3.98718 2.29953 -1 0 0 
4 1 C 6.90347 3.98718 6.88847 -1 0 0 
5 1 C 2.30453 3.98718 2.29953 0 0 0 
6 1 C 2.30453 3.98718 6.88847 0 0 0 
7 2 C 0.00506678 5.31478 2.29953 0 0 0 
8 2 C 4.604 2.65958 6.88847 0 0 0 
9 2 C 4.604 2.65958 2.29953 0 0 0 
10 2 C 0.00506525 5.31478 6.88847 0 0 0 