LAMMPS (16 Mar 2018)
  using 1 OpenMP thread(s) per MPI task
# Find minimum energy for Beryl

#----- Initialize Simulation -----
clear
  using 1 OpenMP thread(s) per MPI task
units 		metal
boundary 	p p p
atom_style 	full
variable	etol equal 1e-25
variable 	ftol equal 1e-25
variable 	maxiter equal 5000
variable 	maxeval equal 10000

#----- Create Atoms -----
read_data 	mod/beryl_water_025.xyz
  triclinic box = (0 0 0) to (9.208 7.97436 18.376) with tilt (-4.604 0 0)
  1 by 1 by 1 MPI processor grid
  reading atoms ...
  119 atoms
  scanning bonds ...
  2 = max bonds/atom
  scanning angles ...
  1 = max angles/atom
  reading bonds ...
  2 bonds
  reading angles ...
  1 angles
  2 = max # of 1-2 neighbors
  1 = max # of 1-3 neighbors
  1 = max # of 1-4 neighbors
  2 = max # of special neighbors
replicate 	1  1  1
  triclinic box = (0 0 0) to (9.208 7.97436 18.376) with tilt (-4.604 0 0)
  1 by 1 by 1 MPI processor grid
  119 atoms
  2 bonds
  1 angles
  2 = max # of 1-2 neighbors
  1 = max # of 1-3 neighbors
  1 = max # of 1-4 neighbors
  2 = max # of special neighbors
  Time spent = 0.000428915 secs

#----- Define Interatomic Potential -----
include		mod/potential_main.mod
kspace_style    pppm 1.0e-4

# Neighbor Style
neighbor        0.3 bin
neigh_modify    delay 0 every 1 check yes

# Minimization style
min_style       cg

# Setup Output
thermo          10
thermo_style    custom  step temp vol cella cellb cellc cellgamma pxx pyy pzz pxy pxz pyz lx ly lz press pe #c_eatoms
thermo_modify   norm no
variable        myVol equal vol
variable        myCella equal cella
variable        myCellb equal cellb
variable        myCellc equal cellc
variable        myCellgamma equal cellgamma
include 	mod/potential_beryl.mod
# Potential Paramters
pair_style      hybrid/overlay morse 5.5 buck 5.5 lj/cut/coul/long 5.5 15.0
pair_coeff    1    1 morse                0            0           0  # Be Be
pair_coeff    1    1 buck                 0            1           -201.0
pair_coeff    1    1 lj/cut/coul/long     10120.        0.413
pair_coeff    1    2 morse                0            0           0  # Be Al
pair_coeff    1    2 buck                 0            1           0
pair_coeff    1    2 lj/cut/coul/long     0            0
pair_coeff    1    3 morse                0            0           0  # Al Si
pair_coeff    1    3 buck                 0            1           0
pair_coeff    1    3 lj/cut/coul/long     0            0
pair_coeff    1    4 morse                0.239919     2.527420    1.815405     #Be O
pair_coeff    1    4 buck                 0.000000     1.000000   -46.00000
pair_coeff    1    4 lj/cut/coul/long     529.000      0.528
pair_coeff    2    2 morse                0            0           0  # Al Al
pair_coeff    2    2 buck                 0            1           -492.
pair_coeff    2    2 lj/cut/coul/long     60423         0.356
pair_coeff    2    3 morse                0            0           0  # Al si
pair_coeff    2    3 buck                 0            1           0
pair_coeff    2    3 lj/cut/coul/long     0            0
pair_coeff    2    4 morse                0.361581     1.900442    2.164818     #Al O
pair_coeff    2    4 buck                 0.000000     1.000000   -71.5
pair_coeff    2    4 lj/cut/coul/long     1420.0        0.482
pair_coeff    3    3 morse                0            0           0  # Si Si
pair_coeff    3    3 buck                 0            1           -282.
pair_coeff    3    3 lj/cut/coul/long     19730         0.391
pair_coeff    3    4 morse                0.340554     2.006700    2.100000     #Si O
pair_coeff    3    4 buck                 0.000000     1.000000   -60.5
pair_coeff    3    4 lj/cut/coul/long     916.          0.504
pair_coeff    4    4 morse                0.042395     1.379316    3.618701  # O O
pair_coeff    4    4 buck                 0.000000     1.000000   -16.7
pair_coeff    4    4 lj/cut/coul/long     3.16          1.05
include 	mod/potential_water.mod
# Potential Paramters

pair_coeff    1    6 morse                0.           0.           0.                  # Ow Be
pair_coeff    1    6 buck                 0            1           -354.5
pair_coeff    1    6 lj/cut/coul/long     39.637        1.1435
pair_coeff    2    6 morse                0            0           0            # Ow Al
pair_coeff    2    6 buck                 0            1           -554.6
pair_coeff    2    6 lj/cut/coul/long     96.854        1.0616
pair_coeff    3    6 morse                0            0           0            # Ow Si
pair_coeff    3    6 buck                 0            1           -419.9
pair_coeff    3    6 lj/cut/coul/long     55.345        1.1126
pair_coeff    4    6 morse                0            0           0            # Ow O
pair_coeff    4    6 buck                 0            1           -102.9
pair_coeff    4    6 lj/cut/coul/long     0.70042       1.8233
pair_coeff    5    6 morse                0            0           0  # Hw Hw
pair_coeff    5    6 buck                 0            1           0
pair_coeff    5    6 lj/cut/coul/long     0.000       0.0
pair_coeff    6    6 morse                0            0           0            # Ow Ow
pair_coeff    6    6 buck                 0            1           -625.4
pair_coeff    6    6 lj/cut/coul/long     0.15525       3.166
pair_coeff    1    5 morse                0            0           0  # Hw Hw
pair_coeff    1    5 buck                 0            1           0
pair_coeff    1    5 lj/cut/coul/long     0.000       0.0
pair_coeff    2    5 morse                0            0           0  # Hw Hw
pair_coeff    2    5 buck                 0            1           0
pair_coeff    2    5 lj/cut/coul/long     0.000       0.0
pair_coeff    3    5 morse                0            0           0  # Hw Hw
pair_coeff    3    5 buck                 0            1           0
pair_coeff    3    5 lj/cut/coul/long     0.000       0.0
pair_coeff    4    5 morse                0            0           0  # Hw Hw
pair_coeff    4    5 buck                 0            1           0
pair_coeff    4    5 lj/cut/coul/long     0.000       0.0
pair_coeff    5    5 morse                0            0           0  # Hw Hw
pair_coeff    5    5 buck                 0            1           0
pair_coeff    5    5 lj/cut/coul/long     0.000       0.0



bond_style      harmonic
angle_style     harmonic
dihedral_style  none
improper_style  none

bond_coeff      1 1000.00 1.000
angle_coeff     1 100.0 109.47

#------ Define Settings -----

# ----- Run Minimization -----

fix BRX all box/relax iso 1.013

dump MIN all custom 1 min.lammpstrj id type element x y z ix iy iz

minimize	1e-6 1e-6 5000 10000 # Performs actual minimization
PPPM initialization ...
WARNING: System is not charge neutral, net charge = -0.002 (../kspace.cpp:302)
  using 12-bit tables for long-range coulomb (../kspace.cpp:321)
  G vector (1/distance) = 0.208163
  grid = 6 10 10
  stencil order = 5
  estimated absolute RMS force accuracy = 0.000576947
  estimated relative force accuracy = 4.00668e-05
  using double precision FFTs
  3d grid and FFT values/proc = 2475 600
Neighbor list info ...
  update every 1 steps, delay 0 steps, check yes
  max neighbors/atom: 2000, page size: 100000
  master list distance cutoff = 15.3
  ghost atom cutoff = 15.3
  binsize = 7.65, bins = 2 2 3
  3 neighbor lists, perpetual/occasional/extra = 3 0 0
  (1) pair morse, perpetual
      attributes: half, newton on
      pair build: half/bin/newton/tri
      stencil: half/bin/3d/newton/tri
      bin: standard
  (2) pair buck, perpetual, copy from (1)
      attributes: half, newton on
      pair build: copy
      stencil: none
      bin: none
  (3) pair lj/cut/coul/long, perpetual, copy from (1)
      attributes: half, newton on
      pair build: copy
      stencil: none
      bin: none
Per MPI rank memory allocation (min/avg/max) = 10.45 | 10.45 | 10.45 Mbytes
Step Temp Volume Cella Cellb Cellc CellGamma Pxx Pyy Pzz Pxy Pxz Pyz Lx Ly Lz Press PotEng 
       0            0    1349.3116        9.208    9.2080001       18.376          120    -203482.7   -203128.75   -275029.73     99.96019    598.74128    314.58432        9.208     7.974362       18.376   -227213.72   -2412.4897 
      10            0    1345.2677     9.198792    9.1987921    18.357624          120   -197483.96   -198117.41   -269061.01     674.2288    1889.9795   -192.03131     9.198792    7.9663876    18.357624   -221554.12   -2413.3423 
      20            0    1341.2319     9.189584    9.1895841    18.339248          120   -190342.44   -191961.66   -262722.59    1246.7981    3179.5801   -696.81998     9.189584    7.9584133    18.339248    -215008.9    -2413.888 
      30            0    1337.2041     9.180376    9.1803761    18.320872          120   -183228.52   -185832.87   -256531.68    1817.7291      4467.46   -1199.4533     9.180376    7.9504389    18.320872   -208531.02   -2414.4491 
      40            0    1333.1845     9.171168    9.1711681    18.302496          120   -175964.81   -179553.81   -250157.83    2386.4987    5752.8963   -1700.7919     9.171168    7.9424646    18.302496   -201892.15   -2414.9669 
      50            0    1329.1729      9.16196    9.1619601     18.28412          120   -168609.45   -173181.29   -243639.87     2953.126    7035.7918   -2199.6462      9.16196    7.9344902     18.28412   -195143.54   -2415.4608 
      60            0    1325.1694     9.152752    9.1527521    18.265744          120   -161303.21   -166854.81    -237459.1    3517.5024    8314.2132   -2695.1908     9.152752    7.9265158    18.265744   -188539.04   -2415.9799 
      70            0    1321.1739     9.143544    9.1435441    18.247368          120   -153844.39    -160374.6   -230891.94    4078.2061     9588.992   -3187.8731     9.143544    7.9185415    18.247368   -181703.64   -2416.4473 
      80            0    1317.1865     9.134336    9.1343361    18.228992          120   -146325.78   -153831.95   -224233.69    4635.7587    10859.063   -3676.9078     9.134336    7.9105671    18.228992   -174797.14   -2416.8958 
      90            0     1313.207     9.125128    9.1251281    18.210616          120   -138705.25   -147183.83   -217446.14    5189.6134    12123.316   -4162.3421     9.125128    7.9025927    18.210616   -167778.41   -2417.3227 
     100            0    1309.2357      9.11592    9.1159201     18.19224          120   -131234.95   -140681.49   -210615.23    5739.6004    13381.079   -4643.1094      9.11592    7.8946184     18.19224   -160843.89   -2417.7659 
     110            0    1305.2723     9.106712    9.1067121    18.173864          120   -123472.15   -133882.76   -203792.86    6284.0838    14631.303   -5119.5463     9.106712     7.886644    18.173864   -153715.92   -2418.1606 
     120            0    1301.3169     9.097504    9.0975041    18.155488          120   -115662.74   -127031.56   -196893.43    6822.7359    15872.354   -5590.2047     9.097504    7.8786697    18.155488   -146529.24   -2418.5391 
     130            0    1297.3695     9.088296    9.0882961    18.137112          120   -107755.84   -120076.58   -189922.12    7355.6569    17103.144   -6054.7113     9.088296    7.8706953    18.137112   -139251.51    -2418.898 
     140            0    1293.4302     9.079088    9.0790881    18.118736          120   -99797.738   -113062.64   -182827.37    7881.3188     18321.96    -6512.492     9.079088    7.8627209    18.118736   -131895.92   -2419.2372 
     150            0    1289.4988      9.06988    9.0698801     18.10036          120   -91775.398   -105974.91   -175720.98    8398.8171    19527.141   -6961.9479      9.06988    7.8547466     18.10036   -124490.43   -2419.5623 
     160            0    1285.5753     9.060672    9.0606721    18.081984          120   -83704.698   -98828.719   -168608.73    8906.6837    20715.569    -7401.711     9.060672    7.8467722    18.081984   -117047.38   -2419.8717 
     170            0    1281.6599     9.051464    9.0514641    18.063608          120   -75535.835   -91571.826   -161423.93    9403.3174    21885.453   -7831.3546     9.051464    7.8387978    18.063608   -109510.53   -2420.1604 
     180            0    1277.7524     9.042256    9.0422561    18.045232          120   -67350.956   -84283.023   -154137.34    9887.5207    23032.721   -8248.5902     9.042256    7.8308235    18.045232   -101923.77   -2420.4342 
     190            0    1273.8528     9.033048    9.0330481    18.026856          120   -59119.748   -76930.871   -146841.91    10356.714    24153.839   -8651.5237     9.033048    7.8228491    18.026856   -94297.509   -2420.6911 
     200            0    1269.9612      9.02384    9.0238401     18.00848          120   -50865.312   -69534.396      -139619    10808.087    25243.136   -9037.4369      9.02384    7.8148748     18.00848   -86672.901   -2420.9384 
     210            0    1266.0776     9.014632    9.0146321    17.990104          120   -42537.353   -62038.868   -132268.74     11238.34    26294.703   -9402.7392     9.014632    7.8069004    17.990104   -78948.321   -2421.1633 
     220            0    1262.2018     9.005424    9.0054241    17.971728          120   -34215.246   -54518.939   -124859.19    11642.425    27299.972   -9743.0251     9.005424     7.798926    17.971728   -71197.793   -2421.3728 
     230            0     1258.334     8.996216    8.9962161    17.953352          120   -25842.226   -46908.754   -117372.33    12014.967    28247.758   -10052.426     8.996216    7.7909517    17.953352   -63374.438   -2421.5622 
     240            0    1254.4741     8.987008    8.9870081    17.934976          120    -17534.89   -39315.219   -109965.84    12346.372     29122.82   -10323.665     8.987008    7.7829773    17.934976   -55605.316   -2421.7444 
     250            0    1250.6221       8.9778    8.9778001      17.9166          120   -9412.5501   -31844.591   -102605.81    12625.791    29904.741   -10545.665       8.9778     7.775003      17.9166   -47954.316   -2421.9327 
     260            0    1246.7779     8.968592    8.9685921    17.898224          120   -1802.3301   -24810.009   -97192.694    12841.682     30573.09   -10707.552     8.968592    7.7670286    17.898224   -41268.344   -2422.3965 
     270            0    1242.9417     8.959384    8.9593841    17.879848          120     6212.715   -17266.165   -90072.605    12971.832    31085.649   -10787.167     8.959384    7.7590542    17.879848   -33708.685   -2422.5534 
     280            0    1239.1133     8.950176    8.9501761    17.861472          120     13963.04   -9828.7256   -83182.025    12971.757    31364.314   -10742.953     8.950176    7.7510799    17.861472   -26349.237   -2422.7073 
     290            0    1235.2929     8.940968    8.9409681    17.843096          120    21166.796   -2700.8567   -76750.434    12774.392    31289.734   -10511.645     8.940968    7.7431055    17.843096   -19428.165   -2422.8746 
     300            0    1231.4802      8.93176    8.9317601     17.82472          120    27489.015    3924.8773   -71142.939    12261.154    30647.268   -9978.9924      8.93176    7.7351311     17.82472   -13243.015   -2423.0688 
     310            0    1227.6754     8.922552    8.9225521    17.806344          120    32328.684    9701.0108   -66701.771    11217.134    29055.585   -8941.2582     8.922552    7.7271568    17.806344   -8224.0255   -2423.2987 
     320            0    1223.8785     8.913344    8.9133441    17.787968          120    34912.352    14154.499   -64297.205    9394.2555    26066.943   -7162.2973     8.913344    7.7191824    17.787968   -5076.7845   -2423.5823 
     330            0    1220.0894     8.904136    8.9041361    17.769592          120    35672.843    17589.731   -63374.527    6939.3705    21903.753   -4788.0533     8.904136    7.7112081    17.769592   -3370.6512   -2423.8647 
     340            0    1216.3082     8.894928    8.8949281    17.751216          120    35657.126    20590.585   -62821.596    4357.4349    17346.613   -2312.7562     8.894928    7.7032337    17.751216   -2191.2947   -2424.1359 
     350            0    1212.5347      8.88572    8.8857201     17.73284          120    35292.595    23802.203   -62342.444     1805.154    12325.826    71.646784      8.88572    7.6952593     17.73284   -1082.5488   -2424.3437 
     360            0    1208.7691     8.876512    8.8765121    17.714464          120    33227.477     27511.37   -61022.198    -60.66965    5907.9985    1484.5381     8.876512     7.687285    17.714464   -94.450487   -2424.6967 
     370            0    1208.0169    8.8746704    8.8746705    17.710789          120    29690.908    27343.052   -59644.015    3.8563681    2976.6022    1062.0986    8.8746704    7.6856901    17.710789   -870.01788   -2425.0995 
     380            0     1207.265    8.8728288    8.8728289    17.707114          120    28676.441    27334.719   -56608.736    125.95712    2113.2689    826.50195    8.8728288    7.6840952    17.707114   -199.19197   -2425.4268 
     390            0     1207.265    8.8728288    8.8728289    17.707114          120    26692.694    25739.973   -55371.274    86.769918    1672.0476    827.09755    8.8728288    7.6840952    17.707114   -979.53563   -2425.6723 
     400            0    1206.5134    8.8709872    8.8709873    17.703438          120    24498.997    23722.118   -49727.871    139.67364    1379.5582    747.78349    8.8709872    7.6825004    17.703438     -502.252   -2426.2531 
     410            0    1206.5134    8.8709872    8.8709873    17.703438          120    23468.994    22626.218   -48517.201    111.93007    1368.1163    782.91761    8.8709872    7.6825004    17.703438    -807.3297   -2426.4111 
     420            0    1205.7622    8.8691456    8.8691457    17.699763          120    21212.104    19975.092   -41082.583     164.1125    1551.5232    767.42325    8.8691456    7.6809055    17.699763    34.871256   -2427.0572 
     430            0    1205.7622    8.8691456    8.8691457    17.699763          120    19397.653    18164.611   -38605.772    133.66191    1455.9373    800.57885    8.8691456    7.6809055    17.699763   -347.83576   -2427.3225 
     440            0    1205.7622    8.8691456    8.8691457    17.699763          120    18726.268    17484.051   -37597.427    122.83893    1432.6104    811.93906    8.8691456    7.6809055    17.699763   -462.36948    -2427.424 
     450            0    1205.7622    8.8691456    8.8691457    17.699763          120    18121.147    16871.445   -36651.841     116.4318    1412.1701    820.05772    8.8691456    7.6809055    17.699763   -553.08266   -2427.5163 
     460            0    1205.7622    8.8691456    8.8691457    17.699763          120    17532.673    16270.614    -35697.81     109.6847    1394.6752     829.0834    8.8691456    7.6809055    17.699763    -631.5075   -2427.6074 
     470            0    1205.7622    8.8691456    8.8691457    17.699763          120    16926.279    15652.977   -34687.047    102.98607    1378.4467    837.61741    8.8691456    7.6809055    17.699763   -702.59681   -2427.7016 
     480            0    1205.7622    8.8691456    8.8691457    17.699763          120    16283.761    14994.498   -33574.256    96.884978    1365.0069    846.49125    8.8691456    7.6809055    17.699763   -765.33241   -2427.8026 
     490            0    1205.7622    8.8691456    8.8691457    17.699763          120     15588.37    14280.802   -32313.284    91.207848    1353.2503     851.8494    8.8691456    7.6809055    17.699763    -814.7041    -2427.914 
     500            0    1205.7622    8.8691456    8.8691457    17.699763          120    14840.835    13505.668   -30904.316    87.391811    1344.3166    857.05833    8.8691456    7.6809055    17.699763   -852.60398    -2428.035 
     510            0    1205.7622    8.8691456    8.8691457    17.699763          120    14087.793    12729.465   -29398.741    85.980803    1338.1533    861.80936    8.8691456    7.6809055    17.699763   -860.49406   -2428.1594 
     520            0    1205.7622    8.8691456    8.8691457    17.699763          120    13408.505    12027.931   -27956.559     88.31557    1337.9472     864.2196    8.8691456    7.6809055    17.699763   -840.04113   -2428.2744 
     530            0    1205.7622    8.8691456    8.8691457    17.699763          120    12844.812    11439.841   -26686.114    89.649139    1340.3037    863.27091    8.8691456    7.6809055    17.699763   -800.48721   -2428.3724 
     540            0    1205.7622    8.8691456    8.8691457    17.699763          120    12371.964    10950.832   -25584.904     94.43329    1345.3067    861.53232    8.8691456    7.6809055    17.699763   -754.03602   -2428.4554 
     550            0    1205.7622    8.8691456    8.8691457    17.699763          120    11973.005    10532.048   -24614.124    97.892092    1351.7702    859.23862    8.8691456    7.6809055    17.699763   -703.02351    -2428.527 
     560            0    1205.7622    8.8691456    8.8691457    17.699763          120     11625.95    10168.751   -23736.234    101.60549    1359.3037    856.04245    8.8691456    7.6809055    17.699763   -647.17783   -2428.5902 
     570            0    1205.7622    8.8691456    8.8691457    17.699763          120    11312.597    9839.7893   -22919.978    105.97303    1367.4611    852.98111    8.8691456    7.6809055    17.699763   -589.19722   -2428.6479 
     580            0    1205.7622    8.8691456    8.8691457    17.699763          120     11022.31     9534.108   -22141.166    110.13999    1376.2644    849.07917    8.8691456    7.6809055    17.699763   -528.24926   -2428.7023 
     590            0    1205.7622    8.8691456    8.8691457    17.699763          120    10744.719    9241.6604   -21376.025     114.9662    1385.9523    845.14092    8.8691456    7.6809055    17.699763   -463.21536   -2428.7545 
     600            0    1205.7622    8.8691456    8.8691457    17.699763          120    10472.109    8952.8941   -20599.838    119.32496    1396.3081    840.40267    8.8691456    7.6809055    17.699763   -391.61144   -2428.8068 
     610            0    1205.7622    8.8691456    8.8691457    17.699763          120    10190.671    8654.2106   -19774.637    125.30735    1408.4653    835.19929    8.8691456    7.6809055    17.699763    -309.9186   -2428.8614 
     620            0    1205.7622    8.8691456    8.8691457    17.699763          120    9874.4462    8317.5566   -18816.182    132.73223    1423.9867    828.71063    8.8691456    7.6809055    17.699763   -208.05982   -2428.9237 
     630            0    1205.7622    8.8691456    8.8691457    17.699763          120    9371.4787     7778.187   -17210.103    146.69994    1453.1109    816.43885    8.8691456    7.6809055    17.699763   -20.145707   -2429.0252 
     640            0    1205.7622    8.8691456    8.8691457    17.699763          120    8626.2019    6977.0549   -14665.294    171.53213    1505.8722    794.03582    8.8691456    7.6809055    17.699763     312.6543   -2429.1788 
     650            0    1205.7622    8.8691456    8.8691457    17.699763          120    8416.6317    6749.0606   -13885.032    180.08503    1524.2178    786.12541    8.8691456    7.6809055    17.699763    426.88679   -2429.2242 
     660            0    1205.7622    8.8691456    8.8691457    17.699763          120    8232.4201    6548.2011   -13175.091    188.04942    1541.4487    777.40721    8.8691456    7.6809055    17.699763    535.17678   -2429.2646 
     670            0    1205.7622    8.8691456    8.8691457    17.699763          120    8054.5837    6352.8101   -12468.492     196.6377     1559.486    768.74797    8.8691456    7.6809055    17.699763    646.30058   -2429.3043 
     680            0    1205.7622    8.8691456    8.8691457    17.699763          120     7860.496    6140.0294   -11682.345    205.77092    1579.9299    759.18614    8.8691456    7.6809055    17.699763    772.72693   -2429.3478 
     690            0    1205.7622    8.8691456    8.8691457    17.699763          120    7577.0716    5828.4097   -10481.881    219.59743    1613.4485    744.84674    8.8691456    7.6809055    17.699763    974.53349   -2429.4127 
     693            0    1206.1378    8.8700664    8.8700665    17.701601          120    6342.0185    4696.0763     -10872.5    152.89558    1457.5908    807.52685    8.8700664    7.6817029    17.701601    55.198259   -2429.4494 
Loop time of 3.05813 on 1 procs for 693 steps with 119 atoms

99.8% CPU use with 1 MPI tasks x 1 OpenMP threads

Minimization stats:
  Stopping criterion = energy tolerance
  Energy initial, next-to-last, final = 
        -2412.48965471     -2429.44711222     -2429.44947542
  Force two-norm initial, final = 574.254 5.99819
  Force max component initial, final = 574.063 0.774933
  Final line search alpha, max atom move = 3.96719e-05 3.07431e-05
  Iterations, force evaluations = 693 693

MPI task timing breakdown:
Section |  min time  |  avg time  |  max time  |%varavg| %total
---------------------------------------------------------------
Pair    | 2.5559     | 2.5559     | 2.5559     |   0.0 | 83.58
Bond    | 0.00038314 | 0.00038314 | 0.00038314 |   0.0 |  0.01
Kspace  | 0.1437     | 0.1437     | 0.1437     |   0.0 |  4.70
Neigh   | 0.019386   | 0.019386   | 0.019386   |   0.0 |  0.63
Comm    | 0.025971   | 0.025971   | 0.025971   |   0.0 |  0.85
Output  | 0.12475    | 0.12475    | 0.12475    |   0.0 |  4.08
Modify  | 0          | 0          | 0          |   0.0 |  0.00
Other   |            | 0.1881     |            |       |  6.15

Nlocal:    119 ave 119 max 119 min
Histogram: 1 0 0 0 0 0 0 0 0 0
Nghost:    7806 ave 7806 max 7806 min
Histogram: 1 0 0 0 0 0 0 0 0 0
Neighs:    87702 ave 87702 max 87702 min
Histogram: 1 0 0 0 0 0 0 0 0 0

Total # of neighbors = 87702
Ave neighs/atom = 736.992
Ave special neighs/atom = 0.0504202
Neighbor list builds = 6
Dangerous builds = 0
undump MIN

reset_timestep	0
timestep 0.0001

velocity        all create 300.0 87287 loop geom
fix		1 all npt temp 300.0 30.0 .1 iso 1.013 1.013 1.0

dump TRJ all custom 1 dump.lammpstrj id type element x y z ix iy iz
dump_modify TRJ sort 1 element Be Al Si O H O

run 		10000
PPPM initialization ...
  using 12-bit tables for long-range coulomb (../kspace.cpp:321)
  G vector (1/distance) = 0.212301
  grid = 8 10 10
  stencil order = 5
  estimated absolute RMS force accuracy = 0.00041044
  estimated relative force accuracy = 2.85035e-05
  using double precision FFTs
  3d grid and FFT values/proc = 2925 800
Per MPI rank memory allocation (min/avg/max) = 9.394 | 9.394 | 9.394 Mbytes
Step Temp Volume Cella Cellb Cellc CellGamma Pxx Pyy Pzz Pxy Pxz Pyz Lx Ly Lz Press PotEng 
       0          300    1206.1378    8.8700664    8.8700665    17.701601          120    10181.384    8731.2771   -6534.3073    338.69621     1466.492    539.15551    8.8700664    7.6817029    17.701601    4126.1179   -2429.4472 
      10    295.76588    1206.1398    8.8700714    8.8700714    17.701611          120    11539.926     6631.037   -8252.3248    1175.2071    2004.9957    2017.7655    8.8700714    7.6817072    17.701611    3306.2126   -2429.3821 
      20    283.34952    1206.1455    8.8700852    8.8700853    17.701638          120    9981.0193    9408.6025   -5608.7353    1050.2443    680.86216   -2063.4223    8.8700852    7.6817192    17.701638    4593.6288   -2429.1928 
      30    263.95602    1206.1551    8.8701088    8.8701088    17.701685          120    11078.403    8691.8227   -2486.3333    178.13931    2569.2463   -3160.8732    8.8701088    7.6817396    17.701685    5761.2973   -2428.8971 
      40    239.88863    1206.1692    8.8701434    8.8701435    17.701755          120    13049.584    6874.0729   -3866.4874     1542.828    2977.0103   -862.41823    8.8701434    7.6817696    17.701755    5352.3898     -2428.53 
      50    215.86201    1206.1885    8.8701908    8.8701909    17.701849          120    11834.793    9464.9521   -3049.8817    2920.2345     459.7729   -3003.6416    8.8701908    7.6818107    17.701849    6083.2878   -2428.1634 
      60    194.59657    1206.2137    8.8702525    8.8702526    17.701972          120    13070.322    9430.5078    2671.2939    1560.5076     3075.681   -5043.2401    8.8702525    7.6818641    17.701972    8390.7081   -2427.8359 
      70    178.08744    1206.2458    8.8703311    8.8703311    17.702129          120    14711.742    7267.2072    4781.1705    1457.6142     4851.027   -4025.3287    8.8703311    7.6819321    17.702129    8920.0398   -2427.5829 
      80    169.45017    1206.2855    8.8704285    8.8704285    17.702323          120    12446.034    9282.6848    3749.8424    3806.7873    920.15644   -4864.5841    8.8704285    7.6820165    17.702323    8492.8537   -2427.4502 
      90    168.02786    1206.3335    8.8705461    8.8705461    17.702558          120    13586.963    9621.2639    7664.6622    4175.9469    2096.9075    -5943.581    8.8705461    7.6821183    17.702558    10290.963   -2427.4248 
     100     172.5389    1206.3905    8.8706859    8.8706859    17.702837          120    15698.236    6905.3856    13081.381    2733.1018    5595.8971   -6222.4095    8.8706859    7.6822394    17.702837    11895.001   -2427.4913 
     110    182.89194    1206.4574    8.8708498    8.8708499    17.703164          120    11977.154    7947.7185    13564.962    3723.4202    2146.9821   -7450.9535    8.8708498    7.6823814    17.703164    11163.278   -2427.6448 
     120    194.85095    1206.5346     8.871039    8.8710391    17.703542          120    11767.654    8488.0035    14787.882    6078.1764    895.66047   -6864.1762     8.871039    7.6825452    17.703542     11681.18   -2427.8224 
     130    206.67295    1206.6227    8.8712549    8.8712549    17.703973          120    15323.968    6025.6804    20603.847     5561.787    4575.5208   -6684.8783    8.8712549    7.6827322    17.703973    13984.498   -2428.0027 
     140      217.194    1206.7226    8.8714997    8.8714998    17.704461          120    11885.338    6897.8689    24261.974    4111.4578    3199.6492   -9095.4822    8.8714997    7.6829442    17.704461    14348.394   -2428.1595 
     150    223.74291     1206.835    8.8717752    8.8717753    17.705011          120    9533.4957    7099.8075    25598.165    5968.7111    998.40353   -8093.1153    8.8717752    7.6831828    17.705011    14077.156   -2428.2579 
     160    226.48033    1206.9606     8.872083    8.8720831    17.705625          120    13460.977    4828.9171    30270.485    7882.0213    3518.0395   -5978.2178     8.872083    7.6834494    17.705625    16186.793   -2428.2981 
     170    226.99934    1207.1006     8.872426    8.8724261     17.70631          120     12124.26    6921.6502    35265.794    5894.9394    3805.0261   -8278.6315     8.872426    7.6837464     17.70631    18103.902   -2428.3024 
     180    224.58963    1207.2561    8.8728069    8.8728069     17.70707          120    8811.2921    7119.5388    38289.225    4851.2707    2372.5115   -8709.8016    8.8728069    7.6840762     17.70707    18073.352   -2428.2617 
     190    221.87539    1207.4279    8.8732277    8.8732278     17.70791          120    11110.912    3610.1467    42580.897    7547.8258    3936.5294   -5845.0426    8.8732277    7.6844407     17.70791    19100.652   -2428.2183 
     200    220.62304    1207.6172    8.8736915    8.8736916    17.708835          120    11104.498     6570.093    46981.038    7783.8132    4635.4506    -6006.393    8.8736915    7.6848424    17.708835    21551.876   -2428.1983 
     210    220.27406    1207.8252    8.8742011    8.8742011    17.709852          120    8830.6249    7949.4182    50546.669    4801.9863    4169.1697   -7560.1989    8.8742011    7.6852836    17.709852    22442.237   -2428.1924 
     220    222.27846    1208.0529    8.8747586    8.8747587    17.710965          120    9533.9586    2678.5466    54885.986    5239.0994    5357.1399   -6832.2748    8.8747586    7.6857665    17.710965    22366.164   -2428.2243 
     230    226.17015    1208.3012    8.8753665    8.8753666    17.712178          120    8683.8575    4545.6723    58845.198    7477.9679    5665.0233   -5236.1857    8.8753665    7.6862929    17.712178    24024.909   -2428.2743 
     240    229.80225    1208.5709     8.876027     8.876027    17.713496          120    7742.3332      7499.26    62418.091    5819.5059    5589.8044   -5553.7497     8.876027    7.6868649    17.713496    25886.561    -2428.328 
     250    232.84386    1208.8631    8.8767422    8.8767423    17.714923          120    9122.4147    2004.3201    66302.828    3781.1766    6651.7739    -7629.545    8.8767422    7.6874843    17.714923    25809.854    -2428.373 
     260    233.56524    1209.1786    8.8775142    8.8775143    17.716464          120    7016.5819    1571.0143    69700.443    4899.2883    6066.9065   -7041.5843    8.8775142    7.6881529    17.716464    26096.013   -2428.3822 
     270    229.98755    1209.5179    8.8783447    8.8783447    17.718121          120    5635.2527    4957.9058    73942.478    5661.4204    5783.0747   -5151.7213    8.8783447    7.6888721    17.718121    28178.545   -2428.3347 
     280    223.07559    1209.8821    8.8792356    8.8792357    17.719899          120    8717.3413    1004.7433    77840.912    4112.8926    7404.0601   -7492.0107    8.8792356    7.6896437    17.719899    29187.666   -2428.2226 
     290    211.84383     1210.272    8.8801893    8.8801893    17.721803          120    7305.9843   -961.68876    79593.352    2595.2459    5989.0163    -9386.313    8.8801893    7.6904696    17.721803    28645.882   -2428.0565 
     300    197.68694    1210.6881     8.881207    8.8812071    17.723834          120    4501.5745    1674.0468    83376.726    3196.3172    4639.0813   -7250.8791     8.881207     7.691351    17.723834    29850.783   -2427.8412 
     310    182.95423    1211.1313    8.8822905    8.8822906    17.725996          120    7557.8118   -529.07595    88200.668     4186.514    7485.4553   -7540.3858    8.8822905    7.6922893    17.725996    31743.135   -2427.6203 
     320    168.77701    1211.6023    8.8834417    8.8834418    17.728293          120    7862.5612   -2459.7619    88413.316    2042.9259    6699.5739    -10075.41    8.8834417    7.6932863    17.728293    31272.038   -2427.4179 
     330    157.31738    1212.1015    8.8846616    8.8846616    17.730728          120    4695.3367   -1018.9908     88603.05    153.17594    3725.8181   -9908.9775    8.8846616    7.6943427    17.730728    30759.799   -2427.2486 
     340    151.15715     1212.629    8.8859504    8.8859505      17.7333          120    6036.5834   -2124.6171    92879.583    2330.5256    7109.0537   -9005.0911    8.8859504    7.6954589      17.7333     32263.85   -2427.1609 
     350    149.59481    1213.1854    8.8873091    8.8873092    17.736011          120    6582.6297   -2920.7519     93661.66    2182.9186     8413.924   -9710.2763    8.8873091    7.6966355    17.736011    32441.179    -2427.144 
     360    153.48949    1213.7705    8.8887376    8.8887377    17.738862          120    4143.5699   -2126.6843    89869.149   -1363.4034    4770.4594    -11227.68    8.8887376    7.6978727    17.738862    30628.678   -2427.2107 
     370    162.51638    1214.3839    8.8902348    8.8902349     17.74185          120    4581.0566   -3181.4894    90384.238     -429.328    7296.3541   -11763.318    8.8902348    7.6991693     17.74185    30594.602   -2427.3493 
     380    173.42226    1215.0254    8.8917999       8.8918    17.744973          120     4142.497   -2686.7373    92487.949    1423.7439    10359.405   -10549.643    8.8917999    7.7005247    17.744973    31314.569   -2427.5152 
     390    185.93765    1215.6946    8.8934322    8.8934322    17.748231          120    1707.1081   -1239.5969    88396.633   -1380.5388     7442.973   -11459.579    8.8934322    7.7019383    17.748231    29621.381   -2427.7079 
     400    197.73833    1216.3909    8.8951296    8.8951297    17.751618          120    2531.9162   -2871.4992    84538.075   -1951.9704    8712.8791   -14372.018    8.8951296    7.7034083    17.751618    28066.164   -2427.8878 
     410    206.60143    1217.1135    8.8968906    8.8968907    17.755133          120     2410.663   -2185.7653    85642.296    18.495469    12041.811   -13549.708    8.8968906    7.7049334    17.755133    28622.398   -2428.0281 
     420    212.77956    1217.8619     8.898714    8.8987141    17.758772          120   -714.85732    906.88228    83901.878    -1269.582    9973.4438   -12308.976     8.898714    7.7065125    17.758772    28031.301   -2428.1282 
     430    216.14253    1218.6356    8.9005979     8.900598    17.762531          120    -493.0789   -594.11085    78828.798   -1672.5898    10696.307   -15578.406    8.9005979     7.708144    17.762531    25913.869   -2428.1838 
     440    216.12461    1219.4336    8.9025404    8.9025405    17.766408          120     988.2671   -1434.7962    76764.134   -396.95895    13586.228   -17206.004    8.9025404    7.7098262    17.766408    25439.202     -2428.17 
     450    215.80776    1220.2554    8.9045398    8.9045399    17.770398          120   -1289.8158     2556.281    75398.294   -1382.7204    11908.515   -15187.734    8.9045398    7.7115578    17.770398     25554.92   -2428.1745 
     460    215.44088    1221.1002    8.9065942    8.9065942    17.774498          120   -3107.6661    2616.1423    71779.484   -570.81195    12242.485   -16229.602    8.9065942    7.7133369    17.774498    23762.653   -2428.1694 
     470    215.84559    1221.9669    8.9087009     8.908701    17.778702          120   -1876.1214   -173.09482    67030.271    954.86538    14915.825   -19453.091    8.9087009    7.7151614    17.778702    21660.352   -2428.1714 
     480    219.46659    1222.8544    8.9108572    8.9108573    17.783005          120   -1696.7463    2213.1487    62633.659   -839.19513    13865.173   -19579.792    8.9108572    7.7170288    17.783005     21050.02   -2428.2307 
     490    225.00357    1223.7614    8.9130597    8.9130598    17.787401          120   -4293.6667    4043.3877    59645.535    420.87933    14100.728    -18448.33    8.9130597    7.7189362    17.787401    19798.419   -2428.3152 
     500    232.19313    1224.6863    8.9153046    8.9153047    17.791881          120   -5852.8572    1166.0845    54658.414    3211.0766    16239.137   -20352.017    8.9153046    7.7208803    17.791881    16657.214   -2428.4251 
     510    241.22244    1225.6273    8.9175874    8.9175875    17.796436          120   -4570.9097     727.2472    46982.237    838.80989    15829.078   -23285.041    8.9175874    7.7228573    17.796436    14379.525   -2428.5562 
     520    249.58059    1226.5824    8.9199032    8.9199032    17.801058          120   -5095.7221    2489.1513    42838.395    1132.6249    16758.098   -22706.699    8.9199032    7.7248628    17.801058    13410.608   -2428.6745 
     530    256.45786    1227.5496    8.9222472    8.9222472    17.805736          120   -8525.4786    1441.3223    39114.232    4869.3228    18327.169   -21821.243    8.9222472    7.7268928    17.805736    10676.692   -2428.7685 
     540    262.37681    1228.5269    8.9246143    8.9246144     17.81046          120   -9263.9549   -1.2438573    30582.493    2847.7898    17280.281     -24974.5    8.9246143    7.7289428     17.81046    7105.7648   -2428.8504 
     550    265.26001    1229.5119    8.9269989     8.926999    17.815218          120   -7524.4639   -122.21096    25011.179    1596.9727    18751.956   -26716.443    8.9269989    7.7310079    17.815218    5788.1681   -2428.8691 
     560    266.74383    1230.5026    8.9293959     8.929396    17.820002          120   -9205.8634   -270.61827    22595.963    5180.8126    20949.187   -24712.036    8.9293959    7.7330838    17.820002    4373.1605   -2428.8704 
     570    267.95643    1231.4971    8.9318008    8.9318009    17.824801          120   -12705.061    18.722392    14979.795    4257.7503    18630.292   -25605.015    8.9318008    7.7351665    17.824801    764.48552   -2428.8779 
     580    268.68258    1232.4931     8.934208    8.9342081    17.829605          120   -11948.541   -1046.2758    8335.2642    2084.0001    18875.477   -28488.952     8.934208    7.7372512    17.829605   -1553.1842   -2428.8664 
     590    271.14045    1233.4885    8.9366127    8.9366128    17.834404          120   -10074.493   -2802.5696    6509.7243     4224.168     22457.99   -28015.704    8.9366127    7.7393337    17.834404   -2122.4462   -2428.8883 
     600     276.3254    1234.4818    8.9390108    8.9390109     17.83919          120   -13353.483   -785.79927    479.04241    4135.2578    20362.514   -27161.789    8.9390108    7.7414105     17.83919   -4553.4134    -2428.947 
     610    282.99712    1235.4709    8.9413975    8.9413976    17.843953          120   -15949.981   -341.96282   -6722.8351    2675.2093    18117.725   -28482.708    8.9413975    7.7434775    17.843953    -7671.593   -2429.0216 
     620    292.53396    1236.4539    8.9437683    8.9437684    17.848684          120   -12767.716   -3852.1523   -8647.9151    3290.9045    21675.024   -29731.359    8.9437683    7.7455306    17.848684   -8422.5944   -2429.1402 
     630    303.41778    1237.4293    8.9461195    8.9461196    17.853377          120   -12847.624    -2107.318   -12776.232    2503.7257    21613.545   -29756.797    8.9461195    7.7475669    17.853377   -9243.7245   -2429.2765 
     640    313.37544    1238.3957    8.9484477    8.9484478    17.858023          120   -17081.687     521.7497    -19467.36    2437.6601    18164.779   -29068.389    8.9484477    7.7495831    17.858023   -12009.099   -2429.4094 
     650      322.633    1239.3513    8.9507489     8.950749    17.862615          120   -15723.449   -3062.7238   -21727.032    3399.7752    19887.301   -29793.416    8.9507489     7.751576    17.862615   -13504.402   -2429.5246 
     660    328.67218    1240.2951    8.9530204    8.9530205    17.867148          120   -13201.922   -2219.8663    -24235.18     1104.402     21447.16   -31883.715    8.9530204    7.7535432    17.867148   -13218.989   -2429.5853 
     670    330.50189    1241.2262    8.9552601    8.9552602    17.871618          120   -15432.532    1643.9758   -29099.459    955.57009    19187.498    -31429.59    8.9552601    7.7554828    17.871618   -14296.005   -2429.5817 
     680    328.91666    1242.1436    8.9574659     8.957466     17.87602          120   -15634.028   -1263.3094   -31141.545    3733.2928    19459.748   -30241.563    8.9574659    7.7573931     17.87602   -16012.961   -2429.5175 
     690     323.4645    1243.0468    8.9596364    8.9596365    17.880352          120   -13423.431   -820.31444   -32859.398    1976.4392    20718.727   -32443.636    8.9596364    7.7592728    17.880352   -15701.048   -2429.4028 
     700     314.8671    1243.9353    8.9617707    8.9617708    17.884611          120   -13189.044    3928.9971   -36055.618    73.446351    20217.883   -34218.657    8.9617707    7.7611212    17.884611   -15105.222   -2429.2525 
     710    306.23597    1244.8089    8.9638682    8.9638683    17.888797          120   -12602.896    1264.3576    -37415.87    3061.6166    20905.562   -32854.474    8.9638682    7.7629377    17.888797    -16251.47   -2429.0932 
     720    297.20838    1245.6675    8.9659285    8.9659286    17.892909          120    -11958.88    836.54026   -39421.025    4162.8294    21303.805   -32880.648    8.9659285    7.7647219    17.892909   -16847.788   -2428.9309 
     730    290.31914    1246.5106     8.967951    8.9679511    17.896945          120   -11419.544    6306.6495   -42231.697    2050.5684     21323.78   -35696.776     8.967951    7.7664735    17.896945   -15781.531   -2428.8107 
     740     287.2593    1247.3384    8.9699357    8.9699358    17.900906          120   -9181.4178    4526.9362   -42946.817    2649.5323    23376.527   -36590.935    8.9699357    7.7681923    17.900906     -15867.1   -2428.7525 
     750    287.06378    1248.1506    8.9718822    8.9718823     17.90479          120   -8967.2062    2800.9012    -45603.78    5485.1698    23538.155    -34957.99    8.9718822     7.769878     17.90479   -17256.695   -2428.7315 
     760    290.91062     1248.947    8.9737899      8.97379    17.908597          120   -9627.3897    7854.2791   -49491.189    5768.1678    22826.203   -35905.996    8.9737899    7.7715301    17.908597     -17088.1   -2428.7844 
     770    298.38667    1249.7272    8.9756582    8.9756583    17.912326          120   -6642.1373    7474.6362   -49255.409    4345.2366    25838.311   -38685.083    8.9756582    7.7731481    17.912326    -16140.97   -2428.8732 
     780    307.24854    1250.4912    8.9774869     8.977487    17.915975          120   -5707.9911    5470.4959   -51375.578    5610.9731    26749.205   -38129.795    8.9774869    7.7747318    17.915975   -17204.358   -2428.9996 
     790      317.378    1251.2388    8.9792756    8.9792756    17.919545          120   -7133.3465    9495.4438   -56592.393    8078.1662     24727.83   -36815.214    8.9792756    7.7762808    17.919545   -18076.765   -2429.1199 
     800    327.91476    1251.9697    8.9810235    8.9810236    17.923033          120   -4403.0062    9732.0447   -55692.006    7394.5695    27718.182   -38402.132    8.9810235    7.7777946    17.923033   -16787.656   -2429.2657 
     810    336.25377     1252.684    8.9827312    8.9827313    17.926441          120    -2380.706    8234.7039   -54768.946    6278.2009    30098.141   -39931.909    8.9827312    7.7792735    17.926441   -16304.983   -2429.3724 
     820    343.89024     1253.382    8.9843993    8.9843993     17.92977          120    -3976.352     11590.17    -60115.33    7916.2881    27383.087   -39279.332    8.9843993    7.7807181     17.92977   -17500.504   -2429.4861 
     830    349.87009    1254.0636    8.9860277    8.9860278     17.93302          120    -1832.069    12133.963    -60161.36    9316.7017     29006.91   -38067.657    8.9860277    7.7821284     17.93302   -16619.822   -2429.5511 
     840    353.97579    1254.7295    8.9876179    8.9876179    17.936193          120    1000.7182    11126.851   -55932.344    8330.7251    32708.011   -39254.047    8.9876179    7.7835055    17.936193   -14601.592   -2429.5842 
     850    358.19643    1255.3804    8.9891717    8.9891718    17.939294          120   -18.750047    13860.288   -58382.487    7457.3436     31005.82   -41854.979    8.9891717    7.7848511    17.939294   -14846.983   -2429.6348 
     860    362.52109    1256.0168    8.9906905    8.9906906    17.942325          120    1006.5135    14347.808   -59980.742    8976.7694    31158.753   -40181.525    8.9906905    7.7861665    17.942325   -14875.473   -2429.6942 
     870    367.26629    1256.6395     8.992176     8.992176    17.945289          120    3788.8509    14204.422    -55886.04    10122.669    34627.304   -38470.131     8.992176    7.7874529    17.945289   -12630.922   -2429.7561 
     880    374.44283    1257.2494    8.9936306    8.9936307    17.948192          120     3779.837    16564.482   -54683.836    8500.1765    34659.134   -42804.604    8.9936306    7.7887126    17.948192   -11446.506   -2429.8533 
     890    382.97671    1257.8475    8.9950565    8.9950566    17.951038          120    4176.8374    15993.374   -55459.822    8012.4722    34686.753   -43763.337    8.9950565    7.7899475    17.951038   -11763.203   -2429.9653 
     900    392.84861    1258.4346    8.9964557    8.9964557     17.95383          120    6150.1254    16526.117    -53820.24    9877.2304    36940.321   -40023.218    8.9964557    7.7911592     17.95383   -10381.333   -2430.0959 
     910    404.65227    1259.0117    8.9978309    8.9978309    17.956575          120    6778.7861    20475.206   -51600.014     9512.062    37603.088   -42973.965    8.9978309    7.7923502    17.956575   -8115.3406   -2430.2415 
     920    415.86542    1259.5802    8.9991848    8.9991848    17.959277          120    7275.3806    18941.397    -49156.26    7955.2848    38512.313   -46172.107    8.9991848    7.7935227    17.959277    -7646.494   -2430.3985 
     930    426.28105    1260.1408    9.0005198    9.0005199    17.961941          120    8267.2759     17653.01   -47783.923    8636.6537    40009.572   -43265.671    9.0005198    7.7946789    17.961941   -7287.8791   -2430.5566 
     940    435.26954    1260.6949    9.0018387    9.0018388    17.964573          120    8766.2501    23440.087   -47527.804    9120.9774    40413.431   -44035.613    9.0018387    7.7958211    17.964573   -5107.1557   -2430.6937 
     950    440.67209    1261.2436    9.0031446    9.0031447    17.967179          120    9416.7991    24089.324   -43128.283    8348.7353    41771.398   -46667.338    9.0031446     7.796952    17.967179   -3207.3865   -2430.7784 
     960    442.90616    1261.7884    9.0044406    9.0044406    17.969765          120    10144.417    19813.254   -38523.076    8143.1358    43312.339   -45373.641    9.0044406    7.7980744    17.969765    -2855.135   -2430.8043 
     970    442.46017    1262.3305    9.0057299      9.00573    17.972338          120    10394.878    23935.501   -38961.473    8102.8039    43445.112   -46175.933    9.0057299     7.799191    17.972338    -1543.698   -2430.8007 
     980    438.08498    1262.8713    9.0070158    9.0070159    17.974905          120    10848.643    28684.474   -35611.192    7974.5316     44440.55   -46946.744    9.0070158    7.8003046    17.974905    1307.3086   -2430.7082 
     990    432.54943    1263.4125    9.0083023    9.0083023    17.977472          120    11042.004    24619.298   -28197.381    8220.8732    45813.179   -45521.171    9.0083023    7.8014187    17.977472    2487.9736   -2430.6235 
    1000    426.14923    1263.9555    9.0095928    9.0095928    17.980047          120    10972.291    23832.863   -26731.011    8001.4971    46328.848    -48049.47    9.0095928    7.8025363    17.980047    2691.3813   -2430.5143 
    1010    419.12282    1264.5016    9.0108902    9.0108902    17.982637          120    10810.158    29211.185   -25616.339    7495.2102    46969.148   -48704.695    9.0108902    7.8036599    17.982637    4801.6681   -2430.4008 
    1020    413.76877    1265.0521    9.0121975    9.0121975    17.985246          120    10397.361    28879.679   -18972.313    7711.9025    47337.122   -45364.773    9.0121975     7.804792    17.985246    6768.2423   -2430.3183 
    1030    409.61652    1265.6081    9.0135176    9.0135176     17.98788          120    9869.6643    25005.905   -15866.581    8110.2897     48163.73   -48655.442    9.0135176    7.8059353     17.98788    6336.3296   -2430.2542 
    1040    405.96169    1266.1703     9.014852    9.0148521    17.990543          120    9339.5608    26261.679   -15773.355    7755.4509     49050.92    -51425.61     9.014852    7.8070909    17.990543    6609.2951   -2430.2067 
    1050     404.1803    1266.7392    9.0162019     9.016202    17.993237          120     8829.928    28300.564   -11709.908    6998.2923    48174.885   -46780.535    9.0162019      7.80826    17.993237     8473.528    -2430.196 
    1060    402.41431    1267.3154    9.0175689    9.0175689    17.995965          120    8168.5153    26322.572   -9239.3062    7167.8983    48353.242   -48292.152    9.0175689    7.8094438    17.995965    8417.2603   -2430.1701 
    1070    399.35032    1267.8992    9.0189533    9.0189534    17.998728          120    7196.8258    23650.982   -9347.0637    7970.6125    49707.779    -53287.13    9.0189533    7.8106428    17.998728    7166.9146   -2430.1313 
    1080      396.439    1268.4904    9.0203549     9.020355    18.001525          120    7053.8205    23619.992   -6592.4879    7111.6625    47993.142   -49776.213    9.0203549    7.8118566    18.001525    8027.1081   -2430.1026 
    1090    390.98792    1269.0892     9.021774     9.021774    18.004357          120    7216.2918    25014.251   -5857.0125    5778.8956      46799.3   -48587.945     9.021774    7.8130855    18.004357    8791.1767   -2430.0314 
    1100    383.64133    1269.6954    9.0232104    9.0232105    18.007224          120    6236.8669    23001.272   -7309.6111    6714.2813    48025.932   -53439.651    9.0232104    7.8143295    18.007224    7309.5092   -2429.9212 
    1110     375.4984    1270.3088    9.0246632    9.0246633    18.010123          120    6050.0733    19040.486   -4832.4806    7271.0675    46244.784    -52678.86    9.0246632    7.8155877    18.010123    6752.6927   -2429.7982 
    1120    365.82149    1270.9291    9.0261319     9.026132    18.013054          120    7036.0124        20735   -4274.8156    5186.7359    44005.062   -50533.265    9.0261319    7.8168596    18.013054    7832.0656   -2429.6488 
    1130    356.07714    1271.5562    9.0276162    9.0276162    18.016016          120    6566.5582    22661.585   -7880.0864    4402.8443     44630.41   -52968.053    9.0276162     7.818145    18.016016    7116.0189   -2429.5102 
    1140     348.1792    1272.1895    9.0291147    9.0291148    18.019006          120     5953.111    17362.353   -7049.1348    5721.3117    43100.786   -53765.432    9.0291147    7.8194428    18.019006    5422.1098   -2429.3944 
    1150    341.09129    1272.8285    9.0306261    9.0306261    18.022023          120    6391.4283    15955.227   -5746.1949     5007.518    40705.882   -53397.608    9.0306261    7.8207517    18.022023    5533.4868   -2429.2956 
    1160    336.53182    1273.4726    9.0321491    9.0321492    18.025062          120    5964.9982    20798.512   -9849.7368    2934.2167    40924.782   -54017.356    9.0321491    7.8220707    18.025062    5637.9244   -2429.2282 
    1170    334.62837    1274.1212    9.0336822    9.0336823    18.028122          120    5266.0588    17620.864   -11540.496    2942.4362    39838.329   -53824.361    9.0336822    7.8233984    18.028122    3782.1422   -2429.2098 
    1180    333.39016    1274.7733    9.0352231    9.0352232    18.031197          120    4892.5288    13182.269   -10981.858    3949.2949     37944.91   -55616.902    9.0352231    7.8247328    18.031197    2364.3133   -2429.1942 
    1190    334.33081    1275.4279    9.0367695    9.0367696    18.034283          120    3649.8282    17625.515   -14130.113    3325.5133    38005.832   -57261.396    9.0367695     7.826072    18.034283    2381.7435   -2429.2172 
    1200    335.90723    1276.0841     9.038319     9.038319    18.037375          120    2985.7509    17381.118   -16433.359    1593.5989    37124.801   -55356.581     9.038319    7.8274139    18.037375    1311.1698   -2429.2428 
    1210    337.04973    1276.7407    9.0398688    9.0398689    18.040468          120    2109.4548    12417.065   -17901.253    2123.0929    36027.526   -56797.883    9.0398688    7.8287561    18.040468    -1124.911   -2429.2618 
    1220    339.23655    1277.3963     9.041416    9.0414161    18.043556          120    352.98848    14621.425   -21578.617    4223.6374    36442.914   -60736.308     9.041416     7.830096    18.043556   -2201.4011   -2429.2843 
    1230    341.16943    1278.0496     9.042957    9.0429571    18.046631          120   -475.28144    15376.363   -22731.529    3084.3386    35200.097   -59457.022     9.042957    7.8314306    18.046631   -2610.1494   -2429.3276 
    1240    341.83529    1278.6991    9.0444887    9.0444887    18.049688          120   -2056.3068    11621.887   -24610.961    1409.1401    34622.829   -58801.535    9.0444887     7.832757    18.049688   -5015.1267   -2429.3453 
    1250    343.41926    1279.3432     9.046007    9.0460071    18.052718          120   -4448.9474    11964.045   -30605.975    4304.4648    36345.807   -62810.913     9.046007    7.8340719    18.052718    -7696.959   -2429.3797 
    1260    343.74505    1279.9799    9.0475074    9.0475075    18.055712          120   -4421.0878    11583.299   -32020.958    5528.6053    34927.918   -64295.448    9.0475074    7.8353714    18.055712   -8286.2489   -2429.3853 
    1270    342.84153    1280.6076    9.0489861    9.0489861    18.058663          120   -6055.6356     8901.122   -32063.918    3089.8918    33459.652   -62912.585    9.0489861    7.8366519    18.058663   -9739.4773   -2429.3737 
    1280    342.69205    1281.2244    9.0504388    9.0504389    18.061562          120   -9850.8692    8880.9277   -38529.103    4471.2027    36468.867   -64215.505    9.0504388      7.83791    18.061562   -13166.348   -2429.3761 
    1290    341.82785    1281.8283    9.0518605    9.0518605    18.064399          120   -9356.2876    6956.5214    -42174.55    6744.1543    35889.492    -67087.05    9.0518605    7.8391412    18.064399   -14858.105   -2429.3663 
    1300    341.17463    1282.4172    9.0532465    9.0532466    18.067165          120   -9063.1218    3969.9686   -41185.208    5552.8592    32691.866   -67279.677    9.0532465    7.8403415    18.067165   -15426.121   -2429.3468 
    1310    342.84409    1282.9895    9.0545929     9.054593    18.069852          120   -13689.748    4016.6684   -45421.183     5872.654    35948.082   -66008.881    9.0545929    7.8415076    18.069852   -18364.754   -2429.3755 
    1320     344.9993    1283.5429    9.0558945    9.0558946     18.07245          120   -15342.947    1646.3348   -50210.276     6923.866     37353.35   -67246.322    9.0558945    7.8426348     18.07245   -21302.296   -2429.4143 
    1330    348.23966    1284.0752    9.0571463    9.0571464    18.074948          120   -13288.075   -2231.7425   -50414.345    6314.9192    33268.607   -68754.863    9.0571463    7.8437189    18.074948   -21978.054    -2429.466 
    1340    353.30733    1284.5847    9.0583442    9.0583442    18.077338          120   -15430.635   -2687.2928   -52743.838    7259.6372    35264.533   -67399.434    9.0583442    7.8447563    18.077338   -23620.589   -2429.5479 
    1350    357.46248    1285.0695    9.0594835    9.0594836    18.079612          120   -19699.955   -4370.3256   -56325.708      7419.43    38456.361   -66464.988    9.0594835     7.845743    18.079612   -26798.663   -2429.6081 
    1360     361.7946    1285.5275    9.0605596    9.0605597     18.08176          120   -19426.531   -7941.3338    -57364.71    5978.0981    34974.967   -67410.521    9.0605596    7.8466749     18.08176   -28244.192   -2429.6835 
    1370    366.03326    1285.9571    9.0615687    9.0615688    18.083773          120   -17130.439   -9101.8441   -59699.826    7473.1658    34972.781   -67289.445    9.0615687    7.8475488    18.083773   -28644.036   -2429.7457 
    1380    368.89111    1286.3567    9.0625074    9.0625074    18.085647          120   -20179.657    -10020.16   -62185.194    8203.0536    38105.229   -66143.349    9.0625074    7.8483617    18.085647   -30795.004    -2429.799 
    1390    371.45646    1286.7249    9.0633719     9.063372    18.087372          120   -24370.847   -11996.826   -62467.957    6159.5354    36434.889   -65639.295    9.0633719    7.8491104    18.087372    -32945.21   -2429.8425 
    1400     373.9619    1287.0603    9.0641593    9.0641594    18.088944          120   -21209.631   -13161.602    -65114.91    6879.3129    35491.101   -66003.459    9.0641593    7.8497923    18.088944   -33162.047   -2429.8933 
    1410    375.15583    1287.3618    9.0648671    9.0648672    18.090356          120   -19307.882   -13836.318   -67934.512    7998.9434    36655.501   -66029.271    9.0648671    7.8504053    18.090356   -33692.904   -2429.9102 
    1420    377.20489    1287.6284    9.0654927    9.0654928    18.091605          120   -25437.153   -14420.932   -67540.563    6353.9966    36080.671   -64885.004    9.0654927    7.8509471    18.091605    -35799.55   -2429.9576 
    1430    379.35405    1287.8591     9.066034     9.066034    18.092685          120   -25897.055   -14756.214   -69505.966    6538.6001    36500.516   -64687.155     9.066034    7.8514158    18.092685   -36719.745   -2429.9975 
    1440    381.43485    1288.0529    9.0664889     9.066489    18.093593          120   -20726.956   -15214.133   -72722.773    7324.3913     35872.88   -65488.516    9.0664889    7.8518098    18.093593   -36221.287   -2430.0309 
    1450    385.32491    1288.2094    9.0668561    9.0668561    18.094325          120   -24109.263   -15167.676   -72429.625    5851.7745    34082.928   -64690.195    9.0668561    7.8521278    18.094325   -37235.521   -2430.1153 
    1460    389.40389    1288.3279    9.0671341    9.0671342     18.09488          120   -28120.626   -14585.401   -73944.782    6399.5539    36236.704   -64240.327    9.0671341    7.8523686     18.09488   -38883.603   -2430.1886 
    1470    393.93665    1288.4079    9.0673216    9.0673217    18.095254          120   -24227.258    -14481.31   -76801.489    7468.5534    36492.749   -65053.293    9.0673216    7.8525309    18.095254   -38503.352   -2430.2726 
    1480    399.38212    1288.4488    9.0674177    9.0674177    18.095446          120   -24192.704   -14011.959   -75654.116     5374.454    32630.093   -64570.517    9.0674177    7.8526141    18.095446   -37952.926   -2430.3743 
    1490    404.08448    1288.4507    9.0674221    9.0674221    18.095455          120   -27701.032   -13195.343   -77112.646    5637.8732    34046.656   -64599.613    9.0674221    7.8526179    18.095455    -39336.34   -2430.4632 
    1500     407.8089    1288.4133    9.0673343    9.0673343     18.09528          120   -26591.918   -12447.308   -80402.479    7953.3715    36643.946   -65644.276    9.0673343    7.8525419     18.09528   -39813.902   -2430.5385 
    1510    411.35578    1288.3364    9.0671538    9.0671539     18.09492          120   -25700.985    -11226.54   -77804.385    5968.1689    33035.366    -64518.01    9.0671538    7.8523856     18.09492    -38243.97   -2430.5932 
    1520    412.61387    1288.2204    9.0668818    9.0668818    18.094377          120   -26239.265   -10751.209   -77861.391    4647.8244    31590.127    -64635.88    9.0668818      7.85215    18.094377   -38283.955   -2430.6287 
    1530    413.01863    1288.0656    9.0665186    9.0665187    18.093652          120   -25526.015   -10265.286   -82649.712    7114.4099    34549.848   -66554.219    9.0665186    7.8518355    18.093652   -39480.338   -2430.6685 
    1540    412.63006     1287.872    9.0660645    9.0660645    18.092746          120   -25996.358   -7982.7257   -80736.459    6241.0781     34077.41   -64567.742    9.0660645    7.8514422    18.092746   -38238.514   -2430.6745 
    1550    410.25563    1287.6403    9.0655207    9.0655207     18.09166          120    -24600.06   -7293.4894   -78376.787    3883.8411    31281.735   -63267.119    9.0655207    7.8509713     18.09166   -36756.779   -2430.6539 
    1560    407.63436    1287.3711    9.0648889    9.0648889    18.090399          120   -21921.065   -8101.7884   -82920.959    4904.1965    31486.711   -65926.735    9.0648889    7.8504241    18.090399   -37647.937   -2430.6443 
    1570    404.29713    1287.0647    9.0641697    9.0641698    18.088964          120   -22865.018   -5629.7998   -83880.043    4668.5166    33258.299   -64193.912    9.0641697    7.8498013    18.088964   -37458.287   -2430.6084 
    1580    399.41617    1286.7219    9.0633647    9.0633648    18.087358          120   -21687.731   -3194.5352    -81103.44    3102.3812    32230.314   -60960.639    9.0633647    7.8491042    18.087358   -35328.569   -2430.5624 
    1590    394.73875    1286.3434    9.0624761    9.0624762    18.085584          120   -17479.535   -4486.4199   -82773.668    3053.0781    29649.705   -63367.171    9.0624761    7.8483346    18.085584   -34913.208   -2430.5244 
    1600    389.43507    1285.9301    9.0615054    9.0615054    18.083647          120   -17495.052   -3857.5167   -84902.846    2020.7199    30475.976   -62762.639    9.0615054    7.8474939    18.083647   -35418.472   -2430.4842 
    1610    382.87588    1285.4826    9.0604542    9.0604542    18.081549          120   -17134.205    226.62667   -84348.405    1351.7672    31836.445   -58655.671    9.0604542    7.8465835    18.081549   -33751.994   -2430.4303 
    1620    377.27735    1285.0021    9.0593252    9.0593252    18.079296          120   -13079.565    1211.1434   -83847.153    1978.3153    29215.084   -59936.993    9.0593252    7.8456058    18.079296   -31905.192   -2430.3924 
    1630     371.2341    1284.4898    9.0581209     9.058121    18.076893          120   -11928.929    113.48863   -83451.286    77.183357    27844.304     -60144.1    9.0581209    7.8445629    18.076893   -31755.575   -2430.3109 
    1640    365.18883    1283.9467    9.0568441    9.0568442    18.074345          120   -11883.853    2939.6828   -84107.002   -1104.4754    29331.577   -56532.969    9.0568441    7.8434571    18.074345   -31017.058   -2430.2682 
    1650    361.04956    1283.3741    9.0554977    9.0554978    18.071658          120   -8984.7541    7709.3352   -84335.369    649.34091    28299.254   -57131.689    9.0554977    7.8422911    18.071658   -28536.929   -2430.2299 
    1660    357.81973    1282.7737    9.0540853    9.0540853    18.068839          120   -7694.7129    7840.8435   -81201.962   -514.71308    26482.643   -57179.887    9.0540853    7.8410679    18.068839    -27018.61   -2430.2099 
    1670    355.92223    1282.1469    9.0526103    9.0526103    18.065896          120      -7736.5    7324.8828   -79701.819   -2640.1863    26823.931   -54380.604    9.0526103    7.8397905    18.065896   -26704.479   -2430.2189 
    1680    357.20349    1281.4952    9.0510763    9.0510763    18.062834          120   -6034.5592    12708.453   -81229.157   -879.98583    26635.629   -55333.595    9.0510763    7.8384621    18.062834   -24851.754   -2430.2573 
    1690    359.67455    1280.8202     9.049487     9.049487    18.059663          120     -5010.86    16950.606   -78330.145   -244.64835    26055.097   -54898.129     9.049487    7.8370857    18.059663   -22130.133   -2430.3181 
    1700    364.01229    1280.1238    9.0478465    9.0478466    18.056389          120   -5143.6371    14965.985   -73789.588   -1964.8544    26258.069   -52287.166    9.0478465     7.835665    18.056389   -21322.413   -2430.4328 
    1710    370.38314    1279.4076    9.0461587    9.0461588     18.05302          120   -4435.2769     16717.85   -74171.941   -1370.7846     25853.19   -54387.816    9.0461587    7.8342033     18.05302   -20629.789   -2430.5621 
    1720    376.45629     1278.673    9.0444271    9.0444272    18.049565          120   -3642.2609    23324.261   -73037.867    244.76709    26165.222   -54035.804    9.0444271    7.8327037    18.049565   -17785.289   -2430.6841 
    1730    382.64156     1277.922     9.042656    9.0426561     18.04603          120   -3386.4741    23928.925   -67520.689    114.24986    27161.234   -50544.297     9.042656    7.8311699     18.04603   -15659.413   -2430.8133 
    1740    388.39102    1277.1564    9.0408498    9.0408499    18.042426          120   -3052.0628     22026.09   -65249.488   -182.40347    26640.616   -53584.889    9.0408498    7.8296057    18.042426   -15425.154   -2430.9352 
    1750    392.12457    1276.3777    9.0390121    9.0390121    18.038758          120    -2389.953    26048.184   -64140.065    755.94674    26642.191   -54658.553    9.0390121    7.8280141    18.038758   -13493.945   -2431.0319 
    1760     394.7747    1275.5877    9.0371468    9.0371469    18.035036          120   -1468.6738    29787.435   -59230.692    1932.1918    28141.394   -49788.769    9.0371468    7.8263988    18.035036   -10303.977   -2431.0997 
    1770    396.66139    1274.7885     9.035259    9.0352591    18.031268          120   -860.08142    28480.973   -55771.759    1567.3795    27991.139   -52014.199     9.035259    7.8247639    18.031268   -9383.6226   -2431.1556 
    1780    396.68629    1273.9817    9.0333525    9.0333526    18.027464          120   -268.52714    27959.863   -53551.505    887.67634    27493.272    -55189.98    9.0333525    7.8231129    18.027464   -8620.0564   -2431.1768 
    1790    397.24761    1273.1689    9.0314312    9.0314312    18.023629          120    962.77367    30768.368   -48431.881    1955.3759    29001.412   -50215.634    9.0314312    7.8214489    18.023629   -5566.9131   -2431.2163 
    1800    397.41664    1272.3522    9.0294996    9.0294997    18.019775          120    1853.1087    33048.488   -45272.007    2160.8842     29362.05   -49820.795    9.0294996    7.8197761    18.019775   -3456.8035   -2431.2431 
    1810    397.09323    1271.5333    9.0275621    9.0275621    18.015908          120    2251.1086    31351.723   -43279.441    477.68847      28712.9   -53691.363    9.0275621    7.8180982    18.015908   -3225.5364   -2431.2517 
    1820    397.53688    1270.7137    9.0256218    9.0256219    18.012036          120    3386.1832    29740.273   -37188.426    256.91694    30242.118   -50821.769    9.0256218    7.8164178    18.012036   -1353.9902   -2431.2829 
    1830    397.42275    1269.8949     9.023683    9.0236831    18.008167          120    4590.0651    33730.706   -33497.069    880.12843    31215.125    -48448.41     9.023683    7.8147388    18.008167    1607.9005   -2431.2961 
    1840    396.52325     1269.079    9.0217498    9.0217499    18.004309          120    4972.5599    35216.026   -32983.228   -287.55626    30516.967   -50568.386    9.0217498    7.8130646    18.004309    2401.7859   -2431.3198 
    1850    395.88699    1268.2671    9.0198256    9.0198257    18.000469          120    6118.9619    30473.007   -27290.731   -1627.7168    31878.418   -49870.285    9.0198256    7.8113982    18.000469    3100.4127   -2431.3258 
    1860     394.1494    1267.4609     9.017914    9.0179141    17.996654          120    7692.2417    32125.507   -22177.915   -1697.3822    33360.269   -48212.594     9.017914    7.8097427    17.996654    5879.9445   -2431.3158 
    1870    391.44561    1266.6622    9.0160193    9.0160194    17.992873          120    8665.5174    37362.836   -21954.139   -1629.0951    32809.877   -47805.706    9.0160193    7.8081018    17.992873     8024.738   -2431.2984 
    1880    389.09361    1265.8725    9.0141452    9.0141453    17.989133          120    10072.518    33754.636   -18239.183   -2753.4624    33615.219   -46532.545    9.0141452    7.8064788    17.989133    8529.3235   -2431.2792 
    1890    385.36264    1265.0934    9.0122955    9.0122956    17.985441          120    11725.722    31866.128   -12843.666    -4257.459    34824.535   -46796.609    9.0122955     7.804877    17.985441    10249.394   -2431.2529 
    1900    381.70439    1264.3266    9.0104744    9.0104744    17.981807          120    13232.351    37746.661   -11303.462   -3961.0392    34403.943   -46348.368    9.0104744    7.8032998    17.981807    13225.183   -2431.2332 
    1910    378.51973    1263.5739    9.0086858    9.0086859    17.978238          120     15391.38    37305.785   -8565.7174   -3620.6484     34912.48   -42840.928    9.0086858    7.8017509    17.978238    14710.482   -2431.2058 
    1920    374.88315    1262.8369    9.0069342    9.0069343    17.974742          120    16965.128    34324.987   -4631.7416   -5591.2052    35030.439   -43093.503    9.0069342    7.8002339    17.974742    15552.791   -2431.1764 
    1930    372.11779    1262.1176    9.0052236    9.0052237    17.971328          120    18329.127    38694.714   -2049.1214   -6369.2537    33733.398   -44872.576    9.0052236    7.7987525    17.971328    18324.907   -2431.1408 
    1940    370.36707    1261.4176    9.0035586    9.0035587    17.968005          120    21330.393    40153.322    2015.8734   -5218.1709    34572.038   -41099.936    9.0035586    7.7973106    17.968005     21166.53   -2431.1344 
    1950     368.3946    1260.7391    9.0019439     9.001944    17.964783          120    23235.839    38288.085    4616.0295    -5986.895    34241.672   -38874.786    9.0019439    7.7959122    17.964783    22046.651   -2431.1172 
    1960    367.70411    1260.0837    9.0003839    9.0003839     17.96167          120    23417.082    41358.333     5763.193   -7462.9433    31146.898   -41672.051    9.0003839    7.7945612     17.96167    23512.869   -2431.1344 
    1970    367.45416    1259.4532    8.9988825    8.9988825    17.958673          120    26062.306    42982.491     11601.08   -7380.1302    31797.134   -40589.191    8.9988825    7.7932609    17.958673    26881.959   -2431.1349 
    1980    366.58045    1258.8496    8.9974445    8.9974445    17.955804          120    28828.507    42121.757    14898.699   -7009.4557    32554.319   -36920.681    8.9974445    7.7920156    17.955804    28616.321   -2431.1388 
    1990    366.30389    1258.2745    8.9960741    8.9960742    17.953069          120    28510.072    44747.765    13316.675   -7295.5128     28697.24   -37600.735    8.9960741    7.7908288    17.953069    28858.171   -2431.1721 
    2000    365.28444    1257.7292    8.9947746    8.9947746    17.950475          120      29543.1    46090.418    18516.231   -8608.3221    28218.007   -39143.865    8.9947746    7.7897034    17.950475    31383.249    -2431.146 
    2010    363.11097    1257.2155    8.9935497    8.9935498    17.948031          120    32312.048    45583.742    24011.989   -8915.7382    30109.787   -37433.197    8.9935497    7.7886426    17.948031     33969.26   -2431.1489 
    2020    361.15053    1256.7348    8.9924034    8.9924035    17.945743          120    33197.233    48067.225    21076.425   -7333.0005    27070.914   -35814.418    8.9924034    7.7876499    17.945743    34113.628   -2431.1164 
    2030    358.54738    1256.2882    8.9913381    8.9913382    17.943617          120    33198.682    48722.363     22780.54    -8260.016    25448.281   -36916.155    8.9913381    7.7867273    17.943617    34900.528   -2431.0925 
    2040    355.73798    1255.8768    8.9903564    8.9903565    17.941658          120    34646.531    48342.023    29690.342    -10069.03    27393.275   -38306.314    8.9903564    7.7858771    17.941658    37559.632    -2431.055 
    2050    354.59912    1255.5017    8.9894614    8.9894615    17.939872          120    36320.942    50876.763    27885.373   -8000.8329    25602.337    -37392.13    8.9894614     7.785102    17.939872    38361.026   -2431.0369 
    2060    353.62879    1255.1639    8.9886549    8.9886549    17.938263          120    36923.363    50903.572    25772.905   -7332.3502    24032.737   -36364.613    8.9886549    7.7844035    17.938263    37866.613   -2431.0276 
    2070    353.76181    1254.8637    8.9879382    8.9879383    17.936832          120    37106.147    49861.566    31187.411   -9609.3204     25651.04   -38278.335    8.9879382    7.7837829    17.936832    39385.041    -2431.023 
    2080     355.0057    1254.6019    8.9873133    8.9873133    17.935585          120    37997.735    52745.019    32028.819   -8384.2297    24388.568   -40131.496    8.9873133    7.7832417    17.935585    40923.858   -2431.0513 
    2090    355.48825    1254.3792    8.9867814    8.9867815    17.934524          120    39264.268    53092.108    28808.599   -6771.9866    23292.237   -38580.598    8.9867814    7.7827811    17.934524    40388.325   -2431.0722 
    2100     355.1954    1254.1958    8.9863433    8.9863434    17.933649          120    39687.343    50908.815    30551.359   -8171.3612    25136.132   -37935.706    8.9863433    7.7824017    17.933649    40382.506   -2431.0944 
    2110    353.94576     1254.052    8.9859999        8.986    17.932964          120    39573.751    53777.827    33018.223   -7624.3195    23906.373   -40936.158    8.9859999    7.7821043    17.932964    42123.267   -2431.0893 
    2120    350.05198    1253.9484    8.9857525    8.9857526    17.932471          120     40250.94    55458.868    32447.511   -6288.3496    22737.291   -41338.647    8.9857525      7.78189    17.932471    42719.106   -2431.0571 
    2130     344.8995    1253.8854    8.9856021    8.9856021     17.93217          120    41359.878    53031.911    32003.366   -6690.0957    24755.147    -38349.26    8.9856021    7.7817597     17.93217    42131.718   -2430.9904 
    2140    339.09717    1253.8635    8.9855496    8.9855497    17.932066          120    41439.043    54826.083    33083.416   -5871.9407    23586.933   -39375.157    8.9855496    7.7817143    17.932066    43116.181   -2430.9115 
    2150    332.24175    1253.8831    8.9855964    8.9855965    17.932159          120    40989.831    57407.195    35930.051   -5284.2698    21917.635    -41823.75    8.9855964    7.7817549    17.932159    44775.692   -2430.8173 
    2160    327.21424    1253.9447    8.9857438    8.9857438    17.932453          120    41386.521    55448.458    36432.834   -5918.1456    23578.335   -39288.374    8.9857438    7.7818825    17.932453    44422.604   -2430.7614 
    2170    323.95048    1254.0488    8.9859924    8.9859925    17.932949          120    41741.026    56137.277    33835.618   -4663.5599    22195.129   -37710.614    8.9859924    7.7820978    17.932949     43904.64   -2430.7111 
    2180    322.97638    1254.1955    8.9863427    8.9863428    17.933648          120    41087.183    58369.501     36029.97   -4039.4465    19976.084   -39989.097    8.9863427    7.7824011    17.933648    45162.218    -2430.695 
    2190    325.68021    1254.3848    8.9867947    8.9867948     17.93455          120    40099.311    56596.536    39387.174   -5601.7751    21351.809   -39277.658    8.9867947    7.7827926     17.93455    45361.007   -2430.7589 
    2200    331.16187    1254.6166    8.9873483    8.9873483    17.935655          120    39529.505    56445.961    34503.843   -4958.9598    19700.642   -37396.238    8.9873483     7.783272    17.935655    43493.103   -2430.8704 
    2210    338.34135    1254.8902    8.9880016    8.9880017    17.936959          120    39165.662     58166.08    31372.245   -3548.0945    16738.151   -38110.154    8.9880016    7.7838378    17.936959    42901.329   -2431.0057 
    2220    347.72898    1255.2049    8.9887528    8.9887529    17.938458          120    37960.189    56404.083    35547.459   -4926.1898    18161.561   -37809.774    8.9887528    7.7844884    17.938458     43303.91   -2431.1797 
    2230    356.73362    1255.5598    8.9896001    8.9896001    17.940149          120    36090.699    55370.478    32840.926   -5559.7881     16791.12   -37449.849    8.9896001    7.7852221    17.940149    41434.034   -2431.3377 
    2240     364.5025    1255.9539    8.9905405    8.9905406    17.942026          120    35579.579    56733.958    25052.531   -3988.4808    13280.089   -37832.924    8.9905405    7.7860365    17.942026    39122.022   -2431.4762 
    2250    371.38748    1256.3857    8.9915707    8.9915707    17.944082          120     35356.41    55870.349    25952.859   -3696.3721    14758.655   -36243.994    8.9915707    7.7869287    17.944082    39059.873   -2431.6109 
    2260     375.2932    1256.8542     8.992688    8.9926881    17.946311          120    33317.916    54385.705    26926.804   -4499.6763    14341.733   -36662.391     8.992688    7.7878964    17.946311    38210.142    -2431.708 
    2270     377.0483     1257.358    8.9938895    8.9938896    17.948709          120    31802.021    54571.227    19658.905   -3912.1563    10661.635   -38606.354    8.9938895    7.7889369    17.948709    35344.051   -2431.7735 
    2280    377.46322    1257.8957    8.9951713    8.9951713    17.951267          120    32136.502    54517.132     15837.62   -2509.1856    12096.226   -36303.162    8.9951713    7.7900469    17.951267    34163.751   -2431.8209 
    2290    375.98999    1258.4659    8.9965303    8.9965304    17.953979          120    31371.604    54125.509    17347.606   -1910.2155    12963.637   -35612.091    8.9965303    7.7912239    17.953979    34281.573   -2431.8365 
[...]
    9200    82.556606    1282.2284    9.0528021    9.0528022    18.066278          120    5206.3646    45554.383   -30946.558    -22280.54    5888.0126   -17877.159    9.0528021    7.8399567    18.066278    6604.7298   -2440.9002 
    9210    81.945603    1282.1084    9.0525196    9.0525197    18.065715          120    4009.1738    45084.307   -30419.718    -23177.95     5954.024   -17320.273    9.0525196    7.8397121    18.065715    6224.5876   -2440.8988 
    9220    82.453773    1281.9948    9.0522524    9.0522525    18.065181          120    3232.9382    45983.199    -30894.04   -22932.203    7321.6394   -15915.924    9.0522524    7.8394806    18.065181    6107.3659   -2440.9137 
    9230    81.921318    1281.8873    9.0519993    9.0519994    18.064676          120    1653.8269    46207.198    -31340.73   -23309.626    7911.4606   -15245.808    9.0519993    7.8392615    18.064676    5506.7651   -2440.9202 
    9240    79.855969    1281.7854    9.0517595    9.0517595    18.064198          120    150.87057    46249.132   -31343.081   -23818.169    7477.4319   -15277.951    9.0517595    7.8390537    18.064198    5018.9737   -2440.8901 
    9250    78.132294    1281.6889    9.0515324    9.0515325    18.063744          120      421.427    47273.459   -31744.593   -23100.891     8027.015   -14646.065    9.0515324    7.8388571    18.063744    5316.7643   -2440.8666 
    9260    78.629292    1281.5979    9.0513182    9.0513183    18.063317          120    298.06636    47833.045   -30910.478    -22928.62    8981.7701   -13605.684    9.0513182    7.8386716    18.063317    5740.2113   -2440.8768 
    9270    81.422005    1281.5126    9.0511171    9.0511172    18.062916          120   -122.77839    47359.482   -30463.591   -23562.426    8766.6617   -13549.197    9.0511171    7.8384975    18.062916    5591.0376   -2440.9268 
    9280    84.514641    1281.4329    9.0509296    9.0509297    18.062542          120    1258.7066    47267.574   -31597.166   -23275.703     8013.039   -14186.758    9.0509296    7.8383351    18.062542    5643.0381   -2440.9825 
    9290    85.708895    1281.3593    9.0507563    9.0507564    18.062196          120    2726.6826    47398.568   -30581.065    -22811.26    7905.1715   -13813.612    9.0507563    7.8381849    18.062196    6514.7284   -2441.0081 
    9300    84.906967    1281.2922    9.0505983    9.0505984     18.06188          120    3510.1032    47426.928   -28828.503   -22642.959    8440.2792   -12651.314    9.0505983    7.8380481     18.06188    7369.5093   -2440.9973 
    9310    84.058625    1281.2323    9.0504573    9.0504574    18.061599          120     4792.423    47908.816   -29769.326   -21821.629    8600.9963   -12498.427    9.0504573     7.837926    18.061599    7643.9711   -2440.9927 
    9320    84.138083    1281.1803    9.0503348    9.0503348    18.061354          120    5518.0937     48355.22   -29370.415   -21259.689    8135.2208   -12695.863    9.0503348    7.8378199    18.061354    8167.6329   -2441.0017 
    9330    83.657183    1281.1367    9.0502321    9.0502322     18.06115          120    5374.7403    49134.177   -26829.976   -20967.244    8247.1548   -11889.239    9.0502321     7.837731     18.06115     9226.314   -2441.0029 
    9340    80.677156    1281.1022     9.050151     9.050151    18.060988          120    5747.4432    50714.716    -26519.04   -19957.521    9194.6092   -10813.045     9.050151    7.8376607    18.060988    9981.0397    -2440.961 
    9350    75.807361    1281.0775    9.0500929    9.0500929    18.060872          120    5734.7606    51378.304   -26689.243   -19578.902    8781.5407   -10818.532    9.0500929    7.8376104    18.060872    10141.274   -2440.9144 
    9360    72.086319    1281.0632     9.050059    9.0500591    18.060804          120    5679.6599    51355.349   -25292.516   -19746.253     6903.608   -11538.676     9.050059    7.8375811    18.060804    10580.831   -2440.8589 
    9370     71.18223    1281.0596    9.0500506    9.0500507    18.060787          120    6777.0499    51508.323   -24831.934   -19261.057    5932.4482   -11692.769    9.0500506    7.8375738    18.060787    11151.146   -2440.8593 
    9380    71.657288    1281.0669    9.0500679     9.050068    18.060822          120     6870.653    50961.141   -24407.646   -19503.262     5840.152   -11080.726    9.0500679    7.8375888    18.060822    11141.383   -2440.8625 
    9390    71.472448    1281.0852     9.050111    9.0501111    18.060908          120    5945.7377    49441.814   -23876.553   -20635.244     5236.578   -10662.577     9.050111    7.8376261    18.060908    10503.666   -2440.8685 
    9400    70.497748    1281.1142    9.0501791    9.0501792    18.061044          120    6277.9568    48811.904   -24527.208   -20604.171    4355.7611    -10787.54    9.0501791    7.8376851    18.061044    10187.551   -2440.8617 
    9410     69.78632    1281.1534    9.0502715    9.0502716    18.061228          120    5788.9274    48685.365   -23905.242   -20609.832    4420.0105   -10050.468    9.0502715    7.8377651    18.061228    10189.683   -2440.8569 
    9420    70.197902    1281.2026    9.0503873    9.0503874    18.061459          120    3486.2277    48102.001   -22857.258   -21695.034    5194.4606   -8579.0475    9.0503873    7.8378654    18.061459    9576.9901   -2440.8767 
    9430    71.162289    1281.2611    9.0505251    9.0505252    18.061734          120    1747.2568     48212.11   -24271.575   -22203.827    5451.6824   -8049.0993    9.0505251    7.8379847    18.061734    8562.5972   -2440.8978 
    9440    71.406438    1281.3283    9.0506834    9.0506835     18.06205          120    618.97243    48407.395    -24603.05   -22484.239    4389.0944   -8351.3648    9.0506834    7.8381218     18.06205     8141.106   -2440.9021 
    9450    70.495775    1281.4037     9.050861     9.050861    18.062405          120   -888.16665    48432.064    -23224.64   -23078.704    3652.7975   -8030.8305     9.050861    7.8382756    18.062405    8106.4192   -2440.8869 
    9460    69.446198     1281.487    9.0510569    9.0510569    18.062795          120   -1810.3375    48734.106   -24350.828   -23096.395    4362.3729   -7266.0011    9.0510569    7.8384453    18.062795    7524.3135   -2440.8847 
    9470    69.633965    1281.5775    9.0512701    9.0512702    18.063221          120   -2472.1369    48534.967   -25613.146   -23295.478    4472.0656    -7052.049    9.0512701    7.8386299    18.063221    6816.5612   -2440.9053 
    9480    71.620968    1281.6751    9.0514997    9.0514998    18.063679          120   -2889.3983    47886.031   -24559.963   -23871.479     3625.623   -6978.6101    9.0514997    7.8388288    18.063679    6812.2231   -2440.9411 
    9490     74.33161    1281.7793    9.0517452    9.0517452    18.064169          120   -2189.4199    47885.442   -24789.556   -23547.665    4157.7043    -6230.541    9.0517452    7.8390413    18.064169    6968.8218   -2440.9899 
    9500    76.020424    1281.8902    9.0520062    9.0520063     18.06469          120   -2013.2011    47897.456   -25683.937   -23441.319     5998.902    -4788.063    9.0520062    7.8392674     18.06469    6733.4391   -2441.0177 
    9510    76.158886    1282.0078    9.0522829    9.0522829    18.065242          120   -2041.5293     47395.64   -25213.117   -23758.751    6866.8108   -3932.9437    9.0522829     7.839507    18.065242    6713.6643   -2441.0288 
    9520    75.904861    1282.1322    9.0525757    9.0525757    18.065826          120   -538.60402    47932.378     -25297.7    -22785.71    7062.2607   -3924.3439    9.0525757    7.8397606    18.065826     7365.358   -2441.0312 
    9530     76.53615    1282.2637    9.0528853    9.0528854    18.066444          120    381.98995    48664.708   -25514.677   -21962.304    7800.7598   -3509.9284    9.0528853    7.8400287    18.066444    7844.0068   -2441.0435 
    9540    77.584335    1282.4028    9.0532125    9.0532126    18.067097          120   -353.87847    48653.527   -25215.435   -22148.366    8651.5028   -2852.1216    9.0532125    7.8403121    18.067097    7694.7379   -2441.0683 
    9550    76.817865    1282.5495    9.0535577    9.0535578    18.067786          120    158.64225    49353.646   -26191.335   -21231.697     8717.843   -3255.8857    9.0535577    7.8406111    18.067786    7773.6511   -2441.0598 
    9560    73.368924    1282.7041    9.0539214    9.0539215    18.068512          120    1573.9636    50034.024   -26608.122   -19882.933    7761.9949   -4441.5123    9.0539214     7.840926    18.068512    8333.2883   -2441.0169 
    9570    69.954428    1282.8667     9.054304    9.0543041    18.069276          120     1615.441    49769.229   -25875.456    -19641.22    7478.3127    -4866.905     9.054304    7.8412573    18.069276    8503.0715   -2440.9676 
    9580    69.606047    1283.0374    9.0547056    9.0547057    18.070077          120    1682.9184    49315.139   -27327.744   -19452.796    8719.6107   -4584.2962    9.0547056    7.8416052    18.070077    7890.1047   -2440.9705 
    9590    71.318422     1283.216    9.0551257    9.0551258    18.070915          120     2082.502    48443.852   -28560.072   -19379.394    9498.6832    -4529.142    9.0551257     7.841969    18.070915    7322.0942   -2441.0046 
    9600    71.951064    1283.4019     9.055563    9.0555631    18.071788          120    2137.9272    46745.296   -27724.797   -19851.056    9020.6382   -5022.9815     9.055563    7.8423477    18.071788    7052.8085   -2441.0289 
    9610    71.072215    1283.5946    9.0560162    9.0560162    18.072693          120    2298.2851    45505.561   -28794.129    -19720.92    9278.7222   -5373.9139    9.0560162    7.8427401    18.072693    6336.5726   -2441.0176 
    9620    70.929246    1283.7932    9.0564832    9.0564833    18.073625          120    1415.5613      44275.7   -30941.885    -19965.49    10069.285   -5385.0574    9.0564832    7.8431446    18.073625    4916.4587   -2441.0309 
    9630    72.341389    1283.9967    9.0569618    9.0569619     18.07458          120   -320.15629    42544.106   -31130.151   -20970.403    9399.8661   -6003.7334    9.0569618    7.8435591     18.07458    3697.9329   -2441.0608 
    9640     73.21227    1284.2039     9.057449     9.057449    18.075552          120   -1090.8841    41628.864   -32081.882    -21123.82    7786.4664   -7553.9902     9.057449     7.843981    18.075552    2818.6994   -2441.0828 
    9650    71.582678    1284.4136    9.0579419     9.057942    18.076536          120   -2219.0662    40861.749   -33874.254   -21335.173     6895.372   -8697.6433    9.0579419    7.8444079    18.076536    1589.4763   -2441.0647 
    9660    68.102145    1284.6245    9.0584377    9.0584378    18.077525          120   -4738.7564    39669.268   -34548.496   -22401.352    7050.5269   -8721.3462    9.0584377    7.8448373    18.077525    127.33834   -2441.0124 
    9670    64.869742    1284.8356    9.0589338    9.0589339    18.078515          120   -5834.1601    39009.304   -35711.023   -22562.449    7058.1315   -8811.3267    9.0589338    7.8452669    18.078515    -845.2933   -2440.9771 
    9680    63.222668    1285.0458    9.0594277    9.0594277    18.079501          120   -5949.8754    38241.364   -36729.775    -22450.63    6339.0503   -9250.7878    9.0594277    7.8456946    18.079501   -1479.4291   -2440.9601 
    9690    62.920414     1285.254     9.059917    9.0599171    18.080477          120   -7255.3066    36640.305   -36912.669   -23358.617    6168.6466   -9057.9184     9.059917    7.8461184    18.080477   -2509.2238   -2440.9508 
    9700    62.876843    1285.4595    9.0603998    9.0603999    18.081441          120   -7972.0978    35432.675   -38340.407   -23703.551    7202.1956   -8201.5879    9.0603998    7.8465365    18.081441     -3626.61    -2440.962 
    9710    62.622511    1285.6613     9.060874    9.0608741    18.082387          120   -7445.2575    34710.359   -39235.007   -23293.657    7449.9226   -7857.7056     9.060874    7.8469472    18.082387   -3989.9685   -2440.9706 
    9720    62.795566    1285.8591    9.0613385    9.0613386    18.083314          120   -7216.7412     33533.91   -38473.059    -23377.53    6265.9552   -8431.1158    9.0613385    7.8473494    18.083314   -4051.9632   -2440.9754 
    9730    64.192335    1286.0523    9.0617924    9.0617925     18.08422          120   -7091.3999    32915.631   -39548.695   -23213.219    5887.1493   -8727.6238    9.0617924    7.8477425     18.08422   -4574.8212   -2440.9986 
    9740    66.671929    1286.2408    9.0622351    9.0622351    18.085103          120   -7110.4927        32956   -40850.795   -22711.956    6389.6141   -8383.3676    9.0622351    7.8481259    18.085103   -5001.7627   -2441.0433 
    9750    68.924724    1286.4243     9.062666    9.0626661    18.085963          120   -7592.6656    32806.848   -39428.113   -22577.352    6075.5391   -8415.9495     9.062666    7.8484991    18.085963   -4737.9769   -2441.0794 
    9760    69.290222    1286.6028    9.0630852    9.0630853      18.0868          120   -7489.8069    33123.411   -39095.182   -21762.534      5395.57   -9169.7271    9.0630852    7.8488621      18.0868   -4487.1925   -2441.0924 
    9770    67.429057    1286.7764    9.0634929    9.0634929    18.087613          120   -7428.8482    33553.324   -40221.786    -20740.42    5878.6351   -9307.1924    9.0634929    7.8492151    18.087613   -4699.1035   -2441.0702 
    9780    64.748681    1286.9452    9.0638891    9.0638892    18.088404          120   -8415.0756    33369.867   -39303.446   -20444.172    7224.7124   -8280.6944    9.0638891    7.8495583    18.088404   -4782.8847   -2441.0414 
    9790    62.794783    1287.1093    9.0642742    9.0642743    18.089173          120   -8157.8967    33232.925   -38403.922   -19698.785    8059.1581   -7627.7744    9.0642742    7.8498918    18.089173   -4442.9645   -2441.0124 
    9800    61.797318    1287.2686    9.0646481    9.0646482    18.089919          120   -7270.0518    32618.937   -38763.813   -18953.648    7972.5375   -7995.1883    9.0646481    7.8502156    18.089919   -4471.6429   -2441.0029 
    9810    60.706976     1287.423    9.0650106    9.0650106    18.090642          120   -7666.8033    30859.434   -38503.445   -19413.717    7875.0802   -8231.2907    9.0650106    7.8505295    18.090642   -5103.6048   -2440.9906 
    9820    59.117999    1287.5722    9.0653607    9.0653608    18.091341          120   -7696.7892      29727.4   -38905.482   -19335.348    8434.0746   -7849.9222    9.0653607    7.8508328    18.091341   -5624.9572    -2440.978 
    9830    58.330927    1287.7158    9.0656977    9.0656978    18.092014          120   -7316.7724    29314.705     -39380.3   -18685.068    8311.1619   -7931.5723    9.0656977    7.8511246    18.092014   -5794.1223   -2440.9708 
    9840    59.780898    1287.8533    9.0660204    9.0660205    18.092658          120   -8420.8264    27900.834     -38785.1   -19235.393    7168.6358   -8652.4477    9.0660204     7.851404    18.092658   -6435.0307    -2440.994 
    9850    62.282175    1287.9839    9.0663269     9.066327    18.093269          120   -10134.246    26905.892   -39900.536   -19727.123    6852.3389   -9024.0814    9.0663269    7.8516695    18.093269   -7709.6302   -2441.0384 
    9860    63.296315    1288.1068    9.0666152    9.0666153    18.093845          120   -11542.516    26933.905   -41431.341   -19528.606    7749.9129   -8318.1915    9.0666152    7.8519192    18.093845    -8679.984   -2441.0669 
    9870    61.795829     1288.221    9.0668831    9.0668832    18.094379          120   -13129.152    26636.938   -40677.178   -19835.754    8119.8467   -7489.7468    9.0668831    7.8521512    18.094379   -9056.4641   -2441.0445 
    9880    59.255148    1288.3258     9.067129    9.0671291     18.09487          120    -13969.07    26170.759   -41336.319   -20054.775    7566.6113   -7671.1535     9.067129    7.8523641     18.09487   -9711.5433    -2441.006 
    9890    57.591102    1288.4205    9.0673512    9.0673513    18.095313          120   -14280.299    25763.009   -43600.589   -20205.289    7453.2195   -7920.7434    9.0673512    7.8525566    18.095313    -10705.96   -2440.9803 
    9900    57.170352    1288.5045    9.0675483    9.0675483    18.095707          120   -15166.188    25072.858    -43511.04   -20988.152    7781.0052   -7449.1581    9.0675483    7.8527272    18.095707   -11201.457   -2440.9834 
    9910    56.694228    1288.5773     9.067719     9.067719    18.096047          120   -14929.944    24799.432   -43442.356   -21278.857    7678.3089   -7360.6326     9.067719    7.8528751    18.096047   -11190.956   -2440.9746 
    9920     55.45894    1288.6385    9.0678625    9.0678626    18.096334          120   -14017.269    24810.891   -45279.119   -21176.398    6753.5051   -8386.0776    9.0678625    7.8529994    18.096334   -11495.166   -2440.9558 
    9930    54.314648    1288.6879    9.0679785    9.0679786    18.096565          120   -14194.898     24447.06   -45878.699   -21753.343    6161.3292   -8950.6422    9.0679785    7.8530998    18.096565   -11875.512   -2440.9435 
    9940    54.950978    1288.7255    9.0680668    9.0680668    18.096741          120   -14119.204    25128.237   -45934.586   -21688.479    6765.0507    -8481.219    9.0680668    7.8531763    18.096741   -11641.851    -2440.964 
    9950    57.897553    1288.7514    9.0681275    9.0681275    18.096863          120   -13585.438    26682.919   -46660.311   -21028.513    7346.5576   -8420.2105    9.0681275    7.8532288    18.096863    -11187.61   -2441.0088 
    9960    61.653735    1288.7658    9.0681611    9.0681612     18.09693          120    -14183.42    27428.892   -46792.327   -21379.137    7201.7849    -9005.059    9.0681611    7.8532579     18.09693   -11182.285   -2441.0742 
    9970    63.817837    1288.7688    9.0681682    9.0681683    18.096944          120   -14616.341    28775.601   -47178.351   -21423.411    7567.0997   -9166.3065    9.0681682    7.8532641    18.096944   -11006.364   -2441.1137 
    9980     63.71192    1288.7609    9.0681498    9.0681499    18.096907          120   -13949.326    31092.474   -47564.087    -20511.78    8832.4536   -8565.6598    9.0681498    7.8532482    18.096907   -10140.313    -2441.131 
    9990      62.6658    1288.7428    9.0681073    9.0681074    18.096822          120    -13689.67    32517.224   -46458.461    -20369.07    9170.3941   -8410.4454    9.0681073    7.8532114    18.096822   -9210.3021   -2441.1234 
   10000    62.149266    1288.7152    9.0680426    9.0680426    18.096693          120   -13178.388     33115.26   -46559.196   -20583.333    8376.6686   -9332.0662    9.0680426    7.8531553    18.096693   -8874.1079   -2441.1311 
Loop time of 33.3757 on 1 procs for 10000 steps with 119 atoms

Performance: 2.589 ns/day, 9.271 hours/ns, 299.619 timesteps/s
99.8% CPU use with 1 MPI tasks x 1 OpenMP threads

MPI task timing breakdown:
Section |  min time  |  avg time  |  max time  |%varavg| %total
---------------------------------------------------------------
Pair    | 27.102     | 27.102     | 27.102     |   0.0 | 81.20
Bond    | 0.0045407  | 0.0045407  | 0.0045407  |   0.0 |  0.01
Kspace  | 2.3836     | 2.3836     | 2.3836     |   0.0 |  7.14
Neigh   | 0.42707    | 0.42707    | 0.42707    |   0.0 |  1.28
Comm    | 0.3481     | 0.3481     | 0.3481     |   0.0 |  1.04
Output  | 1.7444     | 1.7444     | 1.7444     |   0.0 |  5.23
Modify  | 1.2913     | 1.2913     | 1.2913     |   0.0 |  3.87
Other   |            | 0.07441    |            |       |  0.22

Nlocal:    119 ave 119 max 119 min
Histogram: 1 0 0 0 0 0 0 0 0 0
Nghost:    7846 ave 7846 max 7846 min
Histogram: 1 0 0 0 0 0 0 0 0 0
Neighs:    82003 ave 82003 max 82003 min
Histogram: 1 0 0 0 0 0 0 0 0 0

Total # of neighbors = 82003
Ave neighs/atom = 689.101
Ave special neighs/atom = 0.0504202
Neighbor list builds = 149
Dangerous builds = 0
print		" "
 
print		"All done!"
All done!
Total wall time: 0:00:36
