LAMMPS (18 Sep 2018)
OMP_NUM_THREADS environment is not set. Defaulting to 1 thread. (src/comm.cpp:87)
  using 1 OpenMP thread(s) per MPI task
# Find minimum energy for Beryl

#----- Initialize Simulation -----
clear
OMP_NUM_THREADS environment is not set. Defaulting to 1 thread. (src/comm.cpp:87)
  using 1 OpenMP thread(s) per MPI task
units 		metal
boundary 	p p p
atom_style 	full
ERROR: Unknown atom style (src/atom.cpp:511)
Last command: atom_style 	full
