
  ___ ___ ___ _ _ _  
 |   |   |_  | | | | 
 | | | | | . | | | | 
 |__ |  _|___|_____|  1.4.0
 |___|_|             

User:   st_st159367@n0712
Date:   Fri Nov  9 23:04:50 2018
Arch:   x86_64
Pid:    21435
Python: 3.5.0
gpaw:   /opt/bwhpc/common/chem/gpaw/1.4.0/gpaw-1.4.0/lib/python3.5/site-packages/gpaw
_gpaw:  /opt/bwhpc/common/chem/gpaw/1.4.0/gpaw-1.4.0/bin/gpaw-python
ase:    /opt/bwhpc/common/chem/gpaw/1.4.0/ase-3.16.2/ase (version 3.16.2)
numpy:  /opt/bwhpc/common/numlib/python_numpy/1.14.0-python-3.5.0-mkl-2017/lib/python/numpy-1.14.0-py3.5-linux-x86_64.egg/numpy (version 1.14.0)
scipy:  /opt/bwhpc/common/numlib/python_scipy/1.1.0-python_numpy-1.14.0-python-3.5.0-mkl-2017/lib/python/scipy-1.1.0-py3.5-linux-x86_64.egg/scipy (version 1.1.0)
units:  Angstrom and eV
cores:  16

Input parameters:
  h: 0.2
  kpts: {density: 1.0}
  xc: PBE

System changes: positions, numbers, cell, pbc, initial_charges, initial_magmoms 

Initialize ...

Be-setup:
  name: Beryllium
  id: 05824862ae4eb59fd0e1af4fca8e65d4
  Z: 4
  valence: 2
  core: 2
  charge: 0.0
  file: /opt/bwhpc/common/chem/gpaw/1.4.0//gpaw-setups-0.9.20000/Be.PBE.gz
  cutoffs: 0.79(comp), 1.42(filt), 1.77(core), lmax=2
  valence states:
                energy  radius
    2s(2.00)    -5.610   0.794
    2p(0.00)    -2.018   0.794
    *s          21.602   0.794

  Using partial waves for Be as LCAO basis

Al-setup:
  name: Aluminium
  id: 0292cae29f5d6237e50f6abdd43a7bdd
  Z: 13
  valence: 3
  core: 10
  charge: 0.0
  file: /opt/bwhpc/common/chem/gpaw/1.4.0//gpaw-setups-0.9.20000/Al.PBE.gz
  cutoffs: 1.08(comp), 1.91(filt), 2.36(core), lmax=2
  valence states:
                energy  radius
    3s(2.00)    -7.753   1.085
    3p(1.00)    -2.712   1.085
    *s          19.459   1.085
    *p          24.499   1.085
    *d           0.000   1.085

  Using partial waves for Al as LCAO basis

Si-setup:
  name: Silicon
  id: ee77bee481871cc2cb65ac61239ccafa
  Z: 14
  valence: 4
  core: 10
  charge: 0.0
  file: /opt/bwhpc/common/chem/gpaw/1.4.0//gpaw-setups-0.9.20000/Si.PBE.gz
  cutoffs: 1.06(comp), 1.86(filt), 2.06(core), lmax=2
  valence states:
                energy  radius
    3s(2.00)   -10.812   1.058
    3p(2.00)    -4.081   1.058
    *s          16.399   1.058
    *p          23.130   1.058
    *d           0.000   1.058

  Using partial waves for Si as LCAO basis

O-setup:
  name: Oxygen
  id: 32ecd46bf208036f09c70b0ec9a88b78
  Z: 8
  valence: 6
  core: 2
  charge: 0.0
  file: /opt/bwhpc/common/chem/gpaw/1.4.0//gpaw-setups-0.9.20000/O.PBE.gz
  cutoffs: 0.67(comp), 1.17(filt), 0.83(core), lmax=2
  valence states:
                energy  radius
    2s(2.00)   -23.961   0.688
    2p(4.00)    -9.029   0.598
    *s           3.251   0.688
    *p          18.182   0.598
    *d           0.000   0.619

  Using partial waves for O as LCAO basis

Reference energy: -196909.616745

Spin-paired calculation

Occupation numbers:
  Fermi-Dirac: width=0.1000 eV

Convergence criteria:
  Maximum total energy change: 0.0005 eV / electron
  Maximum integral of absolute density change: 0.0001 electrons
  Maximum integral of absolute eigenstate change: 4e-08 eV^2
  Maximum number of iterations: 333

Symmetries present (total): 1

  ( 1  0  0)
  ( 0  1  0)
  ( 0  0  1)

1 k-point (Gamma)
1 k-point in the irreducible part of the Brillouin zone
       k-points in crystal coordinates                weights
   0:     0.00000000    0.00000000    0.00000000          1/1

Wave functions: Uniform real-space grid
  Kinetic energy operator: 8*3+1=25 point O(h^6) finite-difference Laplacian
  ScaLapack parameters: grid=1x1, blocksize=None 

Eigensolver
   Davidson(niter=1, smin=None, normalize=True) 

Densities:
  Coarse grid: 40*40*92 grid
  Fine grid: 80*80*184 grid
  Total Charge: 0.000000 

Density mixing:
  Method: separate
  Backend: pulay
  Linear mixing parameter: 0.05
  Mixing with 5 old densities
  Damping of long wave oscillations: 50 

Hamiltonian:
  XC and Coulomb potentials evaluated on a 80*80*184 grid
  Using the PBE Exchange-Correlation functional
  Interpolation: tri-quintic (5. degree polynomial)
  Poisson solver: Jacobi solver with 4 multi-grid levels
    Coarsest grid: 10 x 10 x 23 points
    Stencil: 8*3+1=25 point O(h^6) finite-difference Laplacian
    Max iterations: 1000
    Tolerance: 2.000000e-10 

Memory estimate:
  Process memory now: 75.21 MiB
  Calculator: 47.30 MiB
    Density: 6.84 MiB
      Arrays: 1.82 MiB
      Localized functions: 4.32 MiB
      Mixer: 0.70 MiB
    Hamiltonian: 2.87 MiB
      Arrays: 1.19 MiB
      XC: 0.00 MiB
      Poisson: 1.36 MiB
      vbar: 0.31 MiB
    Wavefunctions: 37.59 MiB
      Arrays psit_nG: 16.28 MiB
      Eigensolver: 20.75 MiB
      Projections: 0.08 MiB
      Projectors: 0.48 MiB

Total number of cores used: 16
Domain decomposition: 2 x 2 x 4

Number of atoms: 58
Number of atomic orbitals: 232
Number of bands in calculation: 232
Bands to converge: occupied states only
Number of valence electrons: 288

... initialized

Initializing position-dependent things.

Density initialized from atomic densities
Creating initial wave functions:
  232 bands from LCAO basis set

                                              
                                              
                                              
                                              
                    O                         
             O                                
                 AlO     O                    
           Be    O    Be       O              
              OSi    O  O  Al O               
           O           Oi  O  Si              
                 O       Be O                 
              Si O   Si          O            
              O  Al OO O      Si              
           BeO        Be    O                 
             O     O  Si O Al                 
            Si           BeSi  O              
                  Si    O                     
              O     O           Si            
                      Si       O              
                                              
                                              
                                              
                                              

Positions:
   0 Be     4.604000    0.000000    2.297000    ( 0.0000,  0.0000,  0.0000)
   1 Be     4.604000    0.000000    6.891000    ( 0.0000,  0.0000,  0.0000)
   2 Be    -2.302000    3.987181    2.297000    ( 0.0000,  0.0000,  0.0000)
   3 Be    -2.302000    3.987181    6.891000    ( 0.0000,  0.0000,  0.0000)
   4 Be     2.302000    3.987181    2.297000    ( 0.0000,  0.0000,  0.0000)
   5 Be     2.302000    3.987181    6.891000    ( 0.0000,  0.0000,  0.0000)
   6 Al     0.000000    5.316242    2.297000    ( 0.0000,  0.0000,  0.0000)
   7 Al     4.604000    2.658121    6.891000    ( 0.0000,  0.0000,  0.0000)
   8 Al     4.604000    2.658121    2.297000    ( 0.0000,  0.0000,  0.0000)
   9 Al     0.000000    5.316242    6.891000    ( 0.0000,  0.0000,  0.0000)
  10 Si     3.038655    0.921267    0.000000    ( 0.0000,  0.0000,  0.0000)
  11 Si     1.565346    7.053096    0.000000    ( 0.0000,  0.0000,  0.0000)
  12 Si     6.890833    2.170919    0.000000    ( 0.0000,  0.0000,  0.0000)
  13 Si    -2.286833    5.803443    0.000000    ( 0.0000,  0.0000,  0.0000)
  14 Si     3.882513    4.882177    0.000000    ( 0.0000,  0.0000,  0.0000)
  15 Si     0.721487    3.092186    0.000000    ( 0.0000,  0.0000,  0.0000)
  16 Si    -0.721487    3.092186    4.594000    ( 0.0000,  0.0000,  0.0000)
  17 Si     5.325487    4.882177    4.594000    ( 0.0000,  0.0000,  0.0000)
  18 Si    -1.565346    7.053096    4.594000    ( 0.0000,  0.0000,  0.0000)
  19 Si     6.169346    0.921267    4.594000    ( 0.0000,  0.0000,  0.0000)
  20 Si     2.286833    5.803443    4.594000    ( 0.0000,  0.0000,  0.0000)
  21 Si     2.317168    2.170919    4.594000    ( 0.0000,  0.0000,  0.0000)
  22 O      1.757425    1.873574    0.000000    ( 0.0000,  0.0000,  0.0000)
  23 O      2.846575    6.100788    0.000000    ( 0.0000,  0.0000,  0.0000)
  24 O      6.706724    0.585188    0.000000    ( 0.0000,  0.0000,  0.0000)
  25 O     -2.102724    7.389174    0.000000    ( 0.0000,  0.0000,  0.0000)
  26 O      5.347851    5.515600    0.000000    ( 0.0000,  0.0000,  0.0000)
  27 O     -0.743851    2.458762    0.000000    ( 0.0000,  0.0000,  0.0000)
  28 O      0.743850    2.458762    4.594000    ( 0.0000,  0.0000,  0.0000)
  29 O      3.860150    5.515600    4.594000    ( 0.0000,  0.0000,  0.0000)
  30 O     -2.846575    6.100788    4.594000    ( 0.0000,  0.0000,  0.0000)
  31 O      7.450575    1.873574    4.594000    ( 0.0000,  0.0000,  0.0000)
  32 O      2.102724    7.389174    4.594000    ( 0.0000,  0.0000,  0.0000)
  33 O      2.501276    0.585188    4.594000    ( 0.0000,  0.0000,  0.0000)
  34 O      3.926287    1.156973    1.343200    ( 0.0000,  0.0000,  0.0000)
  35 O      0.677713    6.817388    7.844800    ( 0.0000,  0.0000,  0.0000)
  36 O      6.242888    2.821778    1.343200    ( 0.0000,  0.0000,  0.0000)
  37 O     -1.638888    5.152585    7.844800    ( 0.0000,  0.0000,  0.0000)
  38 O      3.642825    3.995611    1.343200    ( 0.0000,  0.0000,  0.0000)
  39 O      0.961175    3.978751    7.844800    ( 0.0000,  0.0000,  0.0000)
  40 O      0.677713    6.817388    1.343200    ( 0.0000,  0.0000,  0.0000)
  41 O      3.926287    1.156973    7.844800    ( 0.0000,  0.0000,  0.0000)
  42 O     -1.638888    5.152585    1.343200    ( 0.0000,  0.0000,  0.0000)
  43 O      6.242888    2.821778    7.844800    ( 0.0000,  0.0000,  0.0000)
  44 O      0.961175    3.978751    1.343200    ( 0.0000,  0.0000,  0.0000)
  45 O      3.642825    3.995611    7.844800    ( 0.0000,  0.0000,  0.0000)
  46 O     -0.961175    3.978751    3.250800    ( 0.0000,  0.0000,  0.0000)
  47 O      5.565175    3.995611    5.937200    ( 0.0000,  0.0000,  0.0000)
  48 O     -0.677713    6.817388    3.250800    ( 0.0000,  0.0000,  0.0000)
  49 O      5.281713    1.156973    5.937200    ( 0.0000,  0.0000,  0.0000)
  50 O      1.638888    5.152585    3.250800    ( 0.0000,  0.0000,  0.0000)
  51 O      2.965112    2.821778    5.937200    ( 0.0000,  0.0000,  0.0000)
  52 O      5.565175    3.995611    3.250800    ( 0.0000,  0.0000,  0.0000)
  53 O     -0.961175    3.978751    5.937200    ( 0.0000,  0.0000,  0.0000)
  54 O      5.281713    1.156973    3.250800    ( 0.0000,  0.0000,  0.0000)
  55 O     -0.677713    6.817388    5.937200    ( 0.0000,  0.0000,  0.0000)
  56 O      2.965112    2.821778    3.250800    ( 0.0000,  0.0000,  0.0000)
  57 O      1.638888    5.152585    5.937200    ( 0.0000,  0.0000,  0.0000)

Unit cell:
           periodic     x           y           z      points  spacing
  1. axis:    yes    9.210000    0.000000    0.000000    40     0.1994
  2. axis:    yes   -4.605000    7.976094    0.000000    40     0.1994
  3. axis:    yes    0.000000    0.000000   18.380000    92     0.1998

  Lengths:   9.210000   9.210000  18.380000
  Angles:   90.000000  90.000000 120.000000

Effective grid spacing dv^(1/3) = 0.2093

                     log10-error:    total        iterations:
           time      wfs    density  energy       fermi  poisson
iter:   1  23:04:56  +1.80   +inf  -487.173672    1      52     
iter:   2  23:04:57  +0.88   +inf  -494.107619    2             
iter:   3  23:04:57  +0.18   +inf  -495.857829    1             
iter:   4  23:04:59  -0.04  -0.69  -462.004207    5      42     
iter:   5  23:05:02  +0.68  -0.75  -792.269985    38     53     
iter:   6  23:05:03  +0.77  -0.52  -750.884725    4      35     
iter:   7  23:05:05  +0.10  -0.56  -756.449278    4      19     
iter:   8  23:05:06  +0.18  -0.54  -761.468273    3      21     
iter:   9  23:05:08  +0.26  -0.53  -438.034349    38     52     
iter:  10  23:05:10  +0.09  -0.91  -436.474391    4      34     
iter:  11  23:05:12  -0.19  -0.93  -433.617017    36     36     
iter:  12  23:05:14  -0.23  -0.99  -432.588192    4      40     
iter:  13  23:05:15  -0.27  -1.19  -433.789364    5      39     
iter:  14  23:05:17  -0.63  -1.03  -423.545708    36     37     
iter:  15  23:05:19  -0.42  -1.21  -421.623580    31     35     
iter:  16  23:05:20  -0.36  -1.46  -421.487074    4      28     
iter:  17  23:05:22  -1.14  -1.48  -421.650184    4      25     
iter:  18  23:05:24  -1.27  -1.49  -421.529877    3      26     
iter:  19  23:05:25  -1.70  -1.61  -421.689737    4      23     
iter:  20  23:05:27  -1.66  -1.55  -421.392218    3      30     
iter:  21  23:05:28  -1.77  -1.78  -421.393859    3      23     
iter:  22  23:05:30  -2.06  -1.94  -421.353790    3      20     
iter:  23  23:05:31  -2.32  -1.99  -421.347572    3      17     
iter:  24  23:05:33  -2.41  -2.03  -421.357831    3      21     
iter:  25  23:05:34  -2.47  -2.09  -421.334493    3      21     
iter:  26  23:05:36  -2.71  -2.10  -421.330977    3      12     
iter:  27  23:05:37  -2.89  -2.17  -421.344986    3      14     
iter:  28  23:05:39  -3.06  -2.19  -421.336042    3      14     
iter:  29  23:05:40  -3.13  -2.23  -421.333620    3      15     
iter:  30  23:05:42  -3.11  -2.27  -421.336339    3      11     
iter:  31  23:05:43  -3.25  -2.31  -421.335975    2      11     
iter:  32  23:05:44  -3.35  -2.35  -421.337983    3      6      
iter:  33  23:05:46  -3.40  -2.40  -421.351977    3      11     
iter:  34  23:05:47  -3.45  -2.42  -421.344459    3      13     
iter:  35  23:05:48  -3.49  -2.52  -421.345389    3      7      
iter:  36  23:05:50  -3.63  -2.59  -421.347811    3      5      
iter:  37  23:05:51  -3.78  -2.63  -421.349262    2      6      
iter:  38  23:05:52  -3.83  -2.68  -421.350536    2      5      
iter:  39  23:05:54  -3.87  -2.73  -421.354226    3      11     
iter:  40  23:05:55  -4.07  -2.77  -421.348591    3      10     
iter:  41  23:05:56  -4.35  -2.82  -421.347208    2      5      
iter:  42  23:05:58  -4.41  -2.85  -421.346818    2      5      
iter:  43  23:05:59  -4.53  -2.92  -421.346912    2      5      
iter:  44  23:06:00  -4.61  -2.97  -421.346562    2      4      
iter:  45  23:06:02  -4.44  -3.00  -421.340657    3      11     
iter:  46  23:06:03  -4.25  -2.82  -421.343921    3      11     
iter:  47  23:06:04  -4.59  -3.17  -421.345540    2      6      
iter:  48  23:06:06  -4.84  -3.13  -421.345321    2      4      
iter:  49  23:06:07  -4.59  -3.21  -421.343094    3      6      
iter:  50  23:06:08  -4.66  -3.56  -421.343084    2      3      
iter:  51  23:06:09  -5.37  -3.56  -421.343205    2      3      
iter:  52  23:06:11  -5.44  -3.62  -421.344621    2      4      
iter:  53  23:06:12  -5.87  -3.59  -421.344766    2      4      
iter:  54  23:06:13  -6.12  -3.70  -421.344851    2      3      
iter:  55  23:06:15  -6.52  -3.76  -421.344648    2      3      
iter:  56  23:06:16  -5.94  -3.74  -421.345474    2      4      
iter:  57  23:06:17  -5.86  -3.80  -421.345101    2      4      
iter:  58  23:06:18  -6.06  -3.82  -421.346341    2      3      
iter:  59  23:06:20  -6.09  -3.89  -421.346014    2      2      
iter:  60  23:06:21  -6.82  -3.90  -421.345801    2      2      
iter:  61  23:06:22  -6.98  -3.98  -421.345465    2      2      
iter:  62  23:06:24  -7.31  -4.09  -421.344648    2      2      
iter:  63  23:06:25  -7.02  -4.13  -421.344784    2      3      
iter:  64  23:06:26  -7.20  -4.00  -421.345136    2      2      
iter:  65  23:06:27  -7.28  -4.02  -421.344869    2      2      
iter:  66  23:06:29  -7.26  -3.99  -421.345080    2      2      
iter:  67  23:06:30  -6.82  -4.00  -421.344674    2      3      
iter:  68  23:06:31  -7.03  -4.21  -421.344184    2      2      
iter:  69  23:06:33  -7.26  -4.18  -421.344312    2      3      
iter:  70  23:06:34  -7.49  -4.60  -421.344435    2      2      

Converged after 70 iterations.

Dipole moment: (1.111551, 1.927247, -78.554251) |e|*Ang

Energy contributions relative to reference atoms: (reference = -196909.616745)

Kinetic:       +582.912963
Potential:     -576.675290
External:        +0.000000
XC:            -458.611982
Entropy (-ST):   -1.090104
Local:          +31.574926
--------------------------
Free energy:   -421.889487
Extrapolated:  -421.344435

Fermi level: -1.53389

 Band  Eigenvalues  Occupancy
    0    -23.64358    2.00000
    1    -23.27165    2.00000
    2    -23.26614    2.00000
    3    -22.73712    2.00000
    4    -22.73044    2.00000
    5    -22.41963    2.00000
    6    -22.26218    2.00000
    7    -22.12083    2.00000
    8    -21.89155    2.00000
    9    -21.83684    2.00000
   10    -21.83550    2.00000
   11    -21.74801    2.00000
   12    -21.74403    2.00000
   13    -21.42326    2.00000
   14    -21.42156    2.00000
   15    -21.30365    2.00000
   16    -21.30088    2.00000
   17    -20.97269    2.00000
   18    -20.70803    2.00000
   19    -20.48815    2.00000
   20    -20.48432    2.00000
   21    -20.42585    2.00000
   22    -20.38446    2.00000
   23    -20.38257    2.00000
   24    -20.23204    2.00000
   25    -20.09993    2.00000
   26    -19.92313    2.00000
   27    -19.92187    2.00000
   28    -19.62286    2.00000
   29    -19.61991    2.00000
   30    -17.48654    2.00000
   31    -17.23636    2.00000
   32    -17.16821    2.00000
   33    -17.16597    2.00000
   34    -16.88835    2.00000
   35    -16.88562    2.00000
   36    -13.49159    2.00000
   37    -12.77244    2.00000
   38    -12.76656    2.00000
   39    -11.83580    2.00000
   40    -11.16269    2.00000
   41    -11.16032    2.00000
   42    -11.15713    2.00000
   43    -11.15465    2.00000
   44    -10.76590    2.00000
   45    -10.19502    2.00000
   46    -10.19299    2.00000
   47    -10.14463    2.00000
   48     -9.95257    2.00000
   49     -9.50523    2.00000
   50     -9.50428    2.00000
   51     -9.27666    2.00000
   52     -9.27125    2.00000
   53     -8.93132    2.00000
   54     -8.53494    2.00000
   55     -8.44999    2.00000
   56     -8.37766    2.00000
   57     -8.37400    2.00000
   58     -8.26120    2.00000
   59     -8.06906    2.00000
   60     -7.93240    2.00000
   61     -7.93210    2.00000
   62     -7.83845    2.00000
   63     -7.83578    2.00000
   64     -7.83361    2.00000
   65     -7.72043    2.00000
   66     -7.59544    2.00000
   67     -7.59489    2.00000
   68     -7.53684    2.00000
   69     -7.53278    2.00000
   70     -7.38817    2.00000
   71     -7.21824    2.00000
   72     -7.21516    2.00000
   73     -7.10932    2.00000
   74     -7.06659    2.00000
   75     -7.06272    2.00000
   76     -6.98169    2.00000
   77     -6.98055    2.00000
   78     -6.96809    2.00000
   79     -6.96147    2.00000
   80     -6.83462    2.00000
   81     -6.83345    2.00000
   82     -6.53878    2.00000
   83     -6.34452    2.00000
   84     -6.31873    2.00000
   85     -6.31844    2.00000
   86     -6.31526    2.00000
   87     -6.31322    2.00000
   88     -6.14150    2.00000
   89     -6.13294    2.00000
   90     -6.07137    2.00000
   91     -6.00969    2.00000
   92     -5.88014    2.00000
   93     -5.85214    2.00000
   94     -5.84478    2.00000
   95     -5.79725    2.00000
   96     -5.55897    2.00000
   97     -5.55137    2.00000
   98     -5.47637    2.00000
   99     -5.47159    2.00000
  100     -5.30623    2.00000
  101     -5.28274    2.00000
  102     -5.12669    2.00000
  103     -5.12205    2.00000
  104     -5.06381    2.00000
  105     -4.94211    2.00000
  106     -4.93685    2.00000
  107     -4.91639    2.00000
  108     -4.90776    2.00000
  109     -4.62371    2.00000
  110     -4.61449    2.00000
  111     -4.60555    2.00000
  112     -4.60440    2.00000
  113     -4.46697    2.00000
  114     -4.27419    2.00000
  115     -4.25713    2.00000
  116     -4.19612    2.00000
  117     -4.18215    2.00000
  118     -4.10595    2.00000
  119     -4.07958    2.00000
  120     -4.07516    2.00000
  121     -3.81901    2.00000
  122     -3.73304    2.00000
  123     -3.72731    2.00000
  124     -3.68464    2.00000
  125     -3.64817    2.00000
  126     -3.64139    2.00000
  127     -3.15352    2.00000
  128     -3.15139    2.00000
  129     -3.03451    2.00000
  130     -2.38222    1.99959
  131     -2.37946    1.99957
  132     -2.36322    1.99950
  133     -2.03497    1.98676
  134     -1.93680    1.96504
  135     -1.91411    1.95633
  136     -1.87182    1.93410
  137     -1.86930    1.93248
  138     -1.81541    1.88698
  139     -1.80795    1.87876
  140     -1.78147    1.84486
  141     -1.64853    1.51769
  142     -1.64220    1.49416
  143     -1.52504    0.95574
  144     -1.52007    0.93101
  145     -1.48222    0.74723
  146     -1.48160    0.74432
  147     -1.32242    0.21534
  148     -0.94113    0.00532
  149     -0.93992    0.00525
  150      2.99126    0.00000
  151      3.07386    0.00000
  152      3.17997    0.00000
  153      3.33727    0.00000
  154      3.33919    0.00000
  155      3.55937    0.00000
  156      4.14758    0.00000
  157      4.14810    0.00000
  158      4.19650    0.00000
  159      4.64002    0.00000
  160      4.64148    0.00000
  161      4.70198    0.00000
  162      4.91925    0.00000
  163      5.04496    0.00000
  164      5.04763    0.00000
  165      5.05061    0.00000
  166      5.09117    0.00000
  167      5.52736    0.00000
  168      5.70591    0.00000
  169      5.70920    0.00000
  170      5.71125    0.00000
  171      5.83715    0.00000
  172      5.84076    0.00000
  173      5.95510    0.00000
  174      6.16942    0.00000
  175      6.22579    0.00000
  176      6.22640    0.00000
  177      6.38190    0.00000
  178      6.47902    0.00000
  179      6.48096    0.00000
  180      6.51861    0.00000
  181      6.52227    0.00000
  182      6.55474    0.00000
  183      6.74255    0.00000
  184      6.74364    0.00000
  185      6.74924    0.00000
  186      6.90344    0.00000
  187      6.91622    0.00000
  188      6.92070    0.00000
  189      7.16580    0.00000
  190      7.17150    0.00000
  191      7.38265    0.00000
  192      7.40878    0.00000
  193      7.42315    0.00000
  194      7.42511    0.00000
  195      7.45665    0.00000
  196      7.45845    0.00000
  197      7.69863    0.00000
  198      7.70057    0.00000
  199      7.72035    0.00000
  200      7.83219    0.00000
  201      7.95018    0.00000
  202      7.98376    0.00000
  203      7.98471    0.00000
  204      8.10594    0.00000
  205      8.10865    0.00000
  206      8.23699    0.00000
  207      8.30058    0.00000
  208      8.37605    0.00000
  209      8.37672    0.00000
  210      8.39748    0.00000
  211      8.42998    0.00000
  212      8.43555    0.00000
  213      8.53085    0.00000
  214      8.53325    0.00000
  215      8.62759    0.00000
  216      8.68014    0.00000
  217      8.68307    0.00000
  218      8.80643    0.00000
  219      8.96616    0.00000
  220      8.98923    0.00000
  221      9.00224    0.00000
  222      9.00583    0.00000
  223      9.06863    0.00000
  224      9.07067    0.00000
  225      9.18032    0.00000
  226      9.37667    0.00000
  227      9.39535    0.00000
  228      9.50607    0.00000
  229      9.56328    0.00000
  230      9.57111    0.00000
  231      9.88278    0.00000

Writing to out/1.gpw (mode='all')

Timing:                              incl.     excl.
-----------------------------------------------------------
Hamiltonian:                         0.960     0.000   0.0% |
 Atomic:                             0.198     0.105   0.1% |
  XC Correction:                     0.093     0.093   0.1% |
 Calculate atomic Hamiltonians:      0.007     0.007   0.0% |
 Communicate:                        0.000     0.000   0.0% |
 Hartree integrate/restrict:         0.002     0.002   0.0% |
 Initialize Hamiltonian:             0.000     0.000   0.0% |
 Poisson:                            0.705     0.705   0.7% |
 XC 3D grid:                         0.047     0.047   0.0% |
 vbar:                               0.000     0.000   0.0% |
LCAO initialization:                 2.704     0.219   0.2% |
 LCAO eigensolver:                   0.273     0.000   0.0% |
  Calculate projections:             0.001     0.001   0.0% |
  DenseAtomicCorrection:             0.001     0.001   0.0% |
  Distribute overlap matrix:         0.034     0.034   0.0% |
  Orbital Layouts:                   0.015     0.015   0.0% |
  Potential matrix:                  0.221     0.221   0.2% |
 LCAO to grid:                       1.735     1.735   1.6% ||
 Set positions (LCAO WFS):           0.477     0.001   0.0% |
  Basic WFS set positions:           0.002     0.002   0.0% |
  Basis functions set positions:     0.000     0.000   0.0% |
  TCI: Calculate S, T, P:            0.474     0.474   0.4% |
SCF-cycle:                          99.615     0.060   0.1% |
 Davidson:                          67.872    28.456  26.8% |----------|
  Apply hamiltonian:                 4.597     4.597   4.3% |-|
  Subspace diag:                    13.225     0.011   0.0% |
   calc_h_matrix:                    7.390     2.766   2.6% ||
    Apply hamiltonian:               4.624     4.624   4.4% |-|
   diagonalize:                      0.830     0.830   0.8% |
   rotate_psi:                       4.994     4.994   4.7% |-|
  calc. matrices:                   13.314     8.678   8.2% |--|
   Apply hamiltonian:                4.636     4.636   4.4% |-|
  diagonalize:                       3.281     3.281   3.1% ||
  rotate_psi:                        4.999     4.999   4.7% |-|
 Density:                            1.031     0.001   0.0% |
  Atomic density matrices:           0.240     0.240   0.2% |
  Mix:                               0.481     0.481   0.5% |
  Multipole moments:                 0.028     0.028   0.0% |
  Pseudo density:                    0.281     0.279   0.3% |
   Symmetrize density:               0.001     0.001   0.0% |
 Hamiltonian:                       30.290     0.007   0.0% |
  Atomic:                           13.185     6.992   6.6% |--|
   XC Correction:                    6.194     6.194   5.8% |-|
  Calculate atomic Hamiltonians:     0.320     0.320   0.3% |
  Communicate:                       0.001     0.001   0.0% |
  Hartree integrate/restrict:        0.105     0.105   0.1% |
  Poisson:                          13.534    13.534  12.8% |----|
  XC 3D grid:                        3.121     3.121   2.9% ||
  vbar:                              0.018     0.018   0.0% |
 Orthonormalize:                     0.363     0.000   0.0% |
  calc_s_matrix:                     0.020     0.020   0.0% |
  inverse-cholesky:                  0.003     0.003   0.0% |
  projections:                       0.295     0.295   0.3% |
  rotate_psi_s:                      0.046     0.046   0.0% |
Set symmetry:                        0.001     0.001   0.0% |
Other:                               2.759     2.759   2.6% ||
-----------------------------------------------------------
Total:                                       106.039 100.0%

Memory usage: 203.84 MiB
Date: Fri Nov  9 23:06:36 2018
