116
Lattice="9.21 0.0 0.0 -4.605 7.97609396885 0.0 0.0 0.0 18.38" Properties=species:S:1:pos:R:3:forces:R:3 dipole="2.24051558517 3.88104255714 -78.074616515" pbc="T T T" energy=-917.2114991385994
Be       4.60429100      -0.00071110       2.29656579       0.00009911       0.00121317      -0.00582352 
Be       4.60428798      -0.00071201       6.89123100      -0.00010652       0.00117077       0.00302296 
Be      -2.30276038       3.98707699       2.29697694       0.00104723       0.00052620      -0.00339510 
Be      -2.30276348       3.98708053       6.89082054       0.00096269       0.00073901       0.00064768 
Be       2.30199316       3.98716905       2.29677331      -0.00123464      -0.00211013      -0.00450384 
Be       2.30199321       3.98716975       6.89103160      -0.00118587      -0.00210627       0.00173348 
Al      -0.00022512       5.31660402       2.29673084      -0.01122965       0.00289202      -0.00455660 
Al       4.60443127       2.65811496       6.89098055       0.00815539      -0.00822699       0.00267168 
Al       4.60443018       2.65811454       2.29679274       0.00819105      -0.00834291      -0.00560701 
Al      -0.00022522       5.31660369       6.89104268      -0.01139804       0.00283167       0.00159810 
Si       3.04340932       0.92379032      -0.00133632      -0.07009120      -0.00485193       0.01361069 
Si       1.56043247       7.05048824      -0.00135836       0.07136067       0.00232931       0.01316611 
Si       6.88745431       2.17360022      -0.00135804       0.03057117      -0.06628419       0.01323359 
Si      -2.28334098       5.80057147      -0.00132561      -0.03027968       0.06478520       0.01396777 
Si       3.88274978       4.87641140      -0.00132726       0.03592033       0.05666871       0.01329971 
Si       0.72124342       3.09774142      -0.00133632      -0.03442383      -0.05932443       0.01303797 
Si      -0.72152359       3.09727701       4.59401791       0.02894136      -0.05936886      -0.00191389 
Si       5.32552227       4.87690978       4.59399882      -0.03192963       0.05915160      -0.00208020 
Si      -1.56164898       7.05154411       4.59399906      -0.06877029      -0.00741910      -0.00192480 
Si       6.16541778       0.92282296       4.59401748       0.06720139       0.00688679      -0.00163439 
Si       2.28191097       5.80103268       4.59401301       0.02823223       0.05606539      -0.00207483 
Si       2.32190403       2.17322121       4.59401373      -0.03151523      -0.05615622      -0.00213735 
O       1.75172526       1.86862455      -0.00022471      -0.04465543      -0.00106560      -0.00560244 
O       2.85186008       6.10506484      -0.00022587       0.04887288       0.00526750      -0.00562345 
O       6.71558278       0.58117936      -0.00022395       0.06771074      -0.01567630      -0.00551305 
O      -2.11206207       7.39303396      -0.00022570      -0.06649455       0.01402938      -0.00552838 
O       5.34671746       5.52444365      -0.00022478      -0.02761086       0.05980680      -0.00553080 
O      -0.74267453       2.44974201      -0.00022203       0.02345557      -0.04975731      -0.00544338 
O       0.74236078       2.45107873       4.59387053       0.02252524      -0.03794574      -0.00015634 
O       3.86126287       5.52260904       4.59385582      -0.02069231       0.04456556      -0.00062695 
O      -2.85476457       6.10671988       4.59387738      -0.04745758       0.05023829       0.00002293 
O       7.45886946       1.86715744       4.59386456       0.04479814      -0.04972942       0.00013850 
O       2.11128503       7.39272146       4.59385755       0.06460502       0.00562877      -0.00026300 
O       2.49255689       0.58159767       4.59388886      -0.05392792      -0.00466743       0.00028633 
O       3.92410785       1.16001178       1.34845693      -0.04070272      -0.00917952      -0.02638900 
O       0.67953829       6.81486440       7.83895955       0.03957040       0.00389535       0.02436230 
O       6.24076651       2.82063087       1.34768936       0.01846865      -0.02760631      -0.03913361 
O      -1.63649003       5.15332712       7.83990595      -0.01484379       0.02341118       0.03830235 
O       3.64708239       3.99294420       1.34768030       0.01587925       0.01657170      -0.03861768 
O       0.95678159       3.98122873       7.83985101      -0.01414912      -0.01786505       0.03398587 
O       0.67967218       6.81477300       1.34852090       0.04147820       0.00761664      -0.02737643 
O       3.92425879       1.15995952       7.83911296      -0.03815238      -0.00599516       0.02448812 
O      -1.63650469       5.15349729       1.34769754      -0.01804737       0.02469888      -0.03981038 
O       6.24079440       2.82080600       7.83980513       0.01548994      -0.02663681       0.03657861 
O       0.95664148       3.98113913       1.34767800      -0.01375600      -0.02054209      -0.03807923 
O       3.64693429       3.99285262       7.83986606       0.01621986       0.01388929       0.03477005 
O      -0.95756464       3.97847452       3.24490803       0.01305398      -0.03740539       0.02252781 
O       5.56187161       3.99607102       5.94335909      -0.01405746       0.04186607      -0.02233362 
O      -0.67752629       6.81505166       3.24563099      -0.03146054       0.00118122       0.03463381 
O       5.28141873       1.15950349       5.94254099       0.03262597      -0.00387862      -0.03517873 
O       1.63441091       5.15479737       3.24566434       0.00474402       0.02085752       0.03331369 
O       2.96943425       2.81895155       5.94252334      -0.01236137      -0.02343501      -0.03338029 
O       5.56206010       3.99592694       3.24478771      -0.01522806       0.03747582       0.02257934 
O      -0.95741097       3.97829958       5.94330589       0.01243844      -0.04158843      -0.02150257 
O       5.28118211       1.15944710       3.24569044       0.02837290      -0.00218296       0.03619312 
O      -0.67774851       6.81494602       5.94252232      -0.03520342       0.00304362      -0.03412678 
O       2.96948504       2.81918067       3.24565812      -0.00929469      -0.02095870       0.03251617 
O       1.63446384       5.15503224       5.94252439       0.00801319       0.02346169      -0.03403422 
Be       4.60429744      -0.00071220      11.48488251       0.00027038       0.00116905       0.00183413 
Be       4.60428584      -0.00071057      16.08009962      -0.00013993       0.00100579       0.00958923 
Be      -2.30276005       3.98707404      11.48529159       0.00100801       0.00038932       0.00411019 
Be      -2.30276629       3.98708477      16.07969250       0.00080718       0.00082771       0.00738816 
Be       2.30199364       3.98717095      11.48509576      -0.00122605      -0.00203018       0.00298859 
Be       2.30199480       3.98717200      16.07990783      -0.00111785      -0.00202906       0.00840635 
Al      -0.00022476       5.31660354      11.48503597      -0.01128060       0.00293891       0.00406376 
Al       4.60442883       2.65811651      16.07999370       0.00824420      -0.00808576       0.01051433 
Al       4.60443007       2.65811399      11.48509838       0.00827560      -0.00849421       0.00298250 
Al      -0.00022309       5.31660144      16.08005585      -0.01144417       0.00288934       0.00945807 
Si       3.04308907       0.92376827       9.18808074      -0.06738648      -0.00482669       0.00041880 
Si       1.56076292       7.05050536       9.18804411       0.06877392       0.00246033      -0.00002127 
Si       6.88764328       2.17333152       9.18804584       0.02900818      -0.06429366       0.00026485 
Si      -2.28352141       5.80083666       9.18807955      -0.02875711       0.06290184       0.00103462 
Si       3.88289245       4.87669481       9.18807131       0.03479597       0.05467940      -0.00001136 
Si       0.72111139       3.09745837       9.18807317      -0.03336586      -0.05754918      -0.00024924 
Si      -0.72154016       3.09735290      13.78226875       0.02899589      -0.05858043       0.00297281 
Si       5.32553480       4.87684201      13.78221839      -0.03144953       0.05848252       0.00226646 
Si      -1.56157997       7.05152735      13.78221990      -0.06821411      -0.00795821       0.00280437 
Si       6.16535389       0.92284521      13.78227037       0.06708500       0.00751918       0.00399405 
Si       2.28186035       5.80099045      13.78225738       0.02792814       0.05592464       0.00253183 
Si       2.32195885       2.17327859      13.78225863      -0.03102466      -0.05627829       0.00199043 
O       1.75148692       1.86839660       9.18774863      -0.04464445       0.00053259      -0.00013942 
O       2.85212327       6.10531139       9.18770965       0.04929554       0.00484795      -0.00095589 
O       6.71591270       0.58107758       9.18774378       0.06691535      -0.01646490       0.00003916 
O      -2.11238369       7.39314539       9.18773236      -0.06473998       0.01400006       0.00032502 
O       5.34664758       5.52478499       9.18772288      -0.02714245       0.05837186      -0.00019691 
O      -0.74260390       2.44942732       9.18777606       0.02259806      -0.04893335       0.00035847 
O       0.74236623       2.45111567      13.78166824       0.02343406      -0.03711650       0.00095137 
O       3.86126572       5.52258342      13.78159978      -0.02096251       0.04340998      -0.00000170 
O      -2.85474149       6.10670885      13.78163802      -0.04757285       0.04956721       0.00116992 
O       7.45886122       1.86718258      13.78164605       0.04407571      -0.04841307       0.00159562 
O       2.11126503       7.39272340      13.78163619       0.06319824       0.00524048       0.00100892 
O       2.49259554       0.58160684      13.78169673      -0.05293405      -0.00455190       0.00165519 
O       3.92394500       1.16008363      10.53741052      -0.04272255      -0.01124631      -0.01895287 
O       0.68024093       6.81504945      17.02867581       0.03220592       0.00182677       0.01609041 
O       6.24074243       2.82042510      10.53660187       0.02106622      -0.02890024      -0.03227674 
O      -1.63695479       5.15386584      17.02964400      -0.00981514       0.01904402       0.02956869 
O       3.64724431       3.99304437      10.53660989       0.01601285       0.01958509      -0.03249190 
O       0.95656365       3.98054971      17.02957887      -0.01206461      -0.01164532       0.02523881 
O       0.67983768       6.81465416      10.53743442       0.04371639       0.00986473      -0.02016042 
O       3.92360280       1.15981846      17.02886081      -0.03025526      -0.00408098       0.01627913 
O      -1.63652892       5.15368516      10.53665461      -0.02087217       0.02671478      -0.03267231 
O       6.24128124       2.82027852      17.02951625       0.01029380      -0.02163862       0.02850340 
O       0.95647743       3.98104902      10.53660291      -0.01399213      -0.02319815      -0.03196419 
O       3.64716011       3.99358092      17.02958718       0.01439580       0.00845156       0.02548086 
O      -0.95762241       3.97856393      12.43326478       0.01457797      -0.03534251       0.02757869 
O       5.56172093       3.99589554      15.13175420      -0.01123713       0.04225980      -0.01315648 
O      -0.67744199       6.81509432      12.43393973      -0.03059197      -0.00063985       0.03943318 
O       5.28134893       1.15966755      15.13100032       0.03230384      -0.00610613      -0.02527189 
O       1.63437985       5.15470001      12.43401487       0.00298188       0.02114968       0.03721925 
O       2.96965356       2.81892873      15.13093234      -0.01276511      -0.02185582      -0.02555796 
O       5.56212703       3.99586393      12.43308335      -0.01738584       0.03544477       0.02715753 
O      -0.95731188       3.97845606      15.13175055       0.00956291      -0.04251669      -0.01159144 
O       5.28108612       1.15942415      12.43408203       0.02754116      -0.00052254       0.04148589 
O      -0.67767394       6.81472381      15.13091996      -0.03392587       0.00508180      -0.02537210 
O       2.96952181       2.81927779      12.43398664      -0.00752158      -0.02144636       0.03639475 
O       1.63425978       5.15505979      15.13094914       0.00855597       0.02160428      -0.02594098 
