
  ___ ___ ___ _ _ _  
 |   |   |_  | | | | 
 | | | | | . | | | | 
 |__ |  _|___|_____|  1.4.0
 |___|_|             

User:   grantcates@s-8d3a102c.off.site.uni-stuttgart.de
Date:   Tue Aug 21 17:47:08 2018
Arch:   x86_64
Pid:    83748
Python: 3.5.1
gpaw:   /Users/grantcates/anaconda/lib/python3.5/site-packages/gpaw
_gpaw:  /Users/grantcates/anaconda/lib/python3.5/site-packages/
        _gpaw.cpython-35m-darwin.so
ase:    /Users/grantcates/anaconda/lib/python3.5/site-packages/ase (version 3.16.2)
numpy:  /Users/grantcates/anaconda/lib/python3.5/site-packages/numpy (version 1.10.4)
scipy:  /Users/grantcates/anaconda/lib/python3.5/site-packages/scipy (version 0.17.0)
units:  Angstrom and eV
cores:  1

Input parameters:
  xc: PBE

System changes: positions, numbers, cell, pbc, initial_charges, initial_magmoms 

Initialize ...

Be-setup:
  name: Beryllium
  id: 05824862ae4eb59fd0e1af4fca8e65d4
  Z: 4
  valence: 2
  core: 2
  charge: 0.0
  file: /Users/grantcates/anaconda/lib/python3.5/site-packages/gpaw/gpaw-setups-0.9.20000/Be.PBE.gz
  cutoffs: 0.79(comp), 1.42(filt), 1.77(core), lmax=2
  valence states:
                energy  radius
    2s(2.00)    -5.610   0.794
    2p(0.00)    -2.018   0.794
    *s          21.602   0.794

  Using partial waves for Be as LCAO basis

Al-setup:
  name: Aluminium
  id: 0292cae29f5d6237e50f6abdd43a7bdd
  Z: 13
  valence: 3
  core: 10
  charge: 0.0
  file: /Users/grantcates/anaconda/lib/python3.5/site-packages/gpaw/gpaw-setups-0.9.20000/Al.PBE.gz
  cutoffs: 1.08(comp), 1.91(filt), 2.36(core), lmax=2
  valence states:
                energy  radius
    3s(2.00)    -7.753   1.085
    3p(1.00)    -2.712   1.085
    *s          19.459   1.085
    *p          24.499   1.085
    *d           0.000   1.085

  Using partial waves for Al as LCAO basis

Si-setup:
  name: Silicon
  id: ee77bee481871cc2cb65ac61239ccafa
  Z: 14
  valence: 4
  core: 10
  charge: 0.0
  file: /Users/grantcates/anaconda/lib/python3.5/site-packages/gpaw/gpaw-setups-0.9.20000/Si.PBE.gz
  cutoffs: 1.06(comp), 1.86(filt), 2.06(core), lmax=2
  valence states:
                energy  radius
    3s(2.00)   -10.812   1.058
    3p(2.00)    -4.081   1.058
    *s          16.399   1.058
    *p          23.130   1.058
    *d           0.000   1.058

  Using partial waves for Si as LCAO basis

O-setup:
  name: Oxygen
  id: 32ecd46bf208036f09c70b0ec9a88b78
  Z: 8
  valence: 6
  core: 2
  charge: 0.0
  file: /Users/grantcates/anaconda/lib/python3.5/site-packages/gpaw/gpaw-setups-0.9.20000/O.PBE.gz
  cutoffs: 0.67(comp), 1.17(filt), 0.83(core), lmax=2
  valence states:
                energy  radius
    2s(2.00)   -23.961   0.688
    2p(4.00)    -9.029   0.598
    *s           3.251   0.688
    *p          18.182   0.598
    *d           0.000   0.619

  Using partial waves for O as LCAO basis

Reference energy: -393819.233490

Spin-paired calculation

Occupation numbers:
  Fermi-Dirac: width=0.1000 eV

Convergence criteria:
  Maximum total energy change: 0.0005 eV / electron
  Maximum integral of absolute density change: 0.0001 electrons
  Maximum integral of absolute eigenstate change: 4e-08 eV^2
  Maximum number of iterations: 333

Symmetries present (total): 1

  ( 1  0  0)
  ( 0  1  0)
  ( 0  0  1)

1 k-point (Gamma)
1 k-point in the irreducible part of the Brillouin zone
       k-points in crystal coordinates                weights
   0:     0.00000000    0.00000000    0.00000000          1/1

Wave functions: Uniform real-space grid
  Kinetic energy operator: 8*3+1=25 point O(h^6) finite-difference Laplacian
  ScaLapack parameters: grid=1x1, blocksize=None 

Eigensolver
   Davidson(niter=1, smin=None, normalize=True) 

Densities:
  Coarse grid: 40*40*92 grid
  Fine grid: 80*80*184 grid
  Total Charge: 0.000000 

Density mixing:
  Method: separate
  Backend: pulay
  Linear mixing parameter: 0.05
  Mixing with 5 old densities
  Damping of long wave oscillations: 50 

Hamiltonian:
  XC and Coulomb potentials evaluated on a 80*80*184 grid
  Using the PBE Exchange-Correlation functional
  Interpolation: tri-quintic (5. degree polynomial)
  Poisson solver: Jacobi solver with 4 multi-grid levels
    Coarsest grid: 10 x 10 x 23 points
    Stencil: 8*3+1=25 point O(h^6) finite-difference Laplacian
    Max iterations: 1000
    Tolerance: 2.000000e-10 

Memory estimate:
  Process memory now: 66.55 MiB
  Calculator: 1313.96 MiB
    Density: 178.58 MiB
      Arrays: 29.20 MiB
      Localized functions: 138.15 MiB
      Mixer: 11.23 MiB
    Hamiltonian: 50.85 MiB
      Arrays: 19.09 MiB
      XC: 0.00 MiB
      Poisson: 21.76 MiB
      vbar: 9.99 MiB
    Wavefunctions: 1084.53 MiB
      Arrays psit_nG: 521.09 MiB
      Eigensolver: 543.15 MiB
      Projections: 5.00 MiB
      Projectors: 15.29 MiB

Total number of cores used: 1

Number of atoms: 116
Number of atomic orbitals: 464
Number of bands in calculation: 464
Bands to converge: occupied states only
Number of valence electrons: 576

... initialized

Initializing position-dependent things.

Density initialized from atomic densities
Creating initial wave functions:
  464 bands from LCAO basis set

                                              
                                              
                                              
                                              
                    O                         
             O                                
                 AlO     O                    
           Be        OBe       O              
              OSi       O  Al O               
           O           OiBeO  Si              
              Si O          O                 
              O  O   Si       O  O            
                 Al OO O      Si              
           BeO        Be   AO                 
            Si     O  Si O                    
                    O    BeSi  O              
             OO   Si    O                     
                   OO Si O      Si            
           Be    Al   Be       O              
               Si    O  O  Al                 
           O  O        Oi  O  O               
                 O       Be O Si              
              Si O   Si          O            
              O  Al OO        Si              
           BeO        BO                      
             O     O  Si O AO                 
            Si           BeSi  O              
                  Si    O                     
              O     O           Si            
                      Si       O              
                                              
                                              
                                              
                                              

Positions:
   0 Be     4.604000    0.000000    2.297000    ( 0.0000,  0.0000,  0.0000)
   1 Be     4.604000    0.000000    6.891001    ( 0.0000,  0.0000,  0.0000)
   2 Be    -2.302000    3.987181    2.297000    ( 0.0000,  0.0000,  0.0000)
   3 Be    -2.302000    3.987181    6.891001    ( 0.0000,  0.0000,  0.0000)
   4 Be     2.302000    3.987181    2.297000    ( 0.0000,  0.0000,  0.0000)
   5 Be     2.302000    3.987181    6.891001    ( 0.0000,  0.0000,  0.0000)
   6 Al     0.000000    5.316242    2.297000    ( 0.0000,  0.0000,  0.0000)
   7 Al     4.604000    2.658121    6.891001    ( 0.0000,  0.0000,  0.0000)
   8 Al     4.604000    2.658121    2.297000    ( 0.0000,  0.0000,  0.0000)
   9 Al     0.000000    5.316242    6.891001    ( 0.0000,  0.0000,  0.0000)
  10 Si     3.038655    0.921267    0.000000    ( 0.0000,  0.0000,  0.0000)
  11 Si     1.565346    7.053097    0.000000    ( 0.0000,  0.0000,  0.0000)
  12 Si     6.890834    2.170919    0.000000    ( 0.0000,  0.0000,  0.0000)
  13 Si    -2.286833    5.803444    0.000000    ( 0.0000,  0.0000,  0.0000)
  14 Si     3.882513    4.882177    0.000000    ( 0.0000,  0.0000,  0.0000)
  15 Si     0.721487    3.092185    0.000000    ( 0.0000,  0.0000,  0.0000)
  16 Si    -0.721487    3.092185    4.594000    ( 0.0000,  0.0000,  0.0000)
  17 Si     5.325488    4.882177    4.594000    ( 0.0000,  0.0000,  0.0000)
  18 Si    -1.565346    7.053097    4.594000    ( 0.0000,  0.0000,  0.0000)
  19 Si     6.169345    0.921267    4.594000    ( 0.0000,  0.0000,  0.0000)
  20 Si     2.286833    5.803444    4.594000    ( 0.0000,  0.0000,  0.0000)
  21 Si     2.317168    2.170919    4.594000    ( 0.0000,  0.0000,  0.0000)
  22 O      1.757425    1.873574    0.000000    ( 0.0000,  0.0000,  0.0000)
  23 O      2.846575    6.100789    0.000000    ( 0.0000,  0.0000,  0.0000)
  24 O      6.706725    0.585188    0.000000    ( 0.0000,  0.0000,  0.0000)
  25 O     -2.102725    7.389175    0.000000    ( 0.0000,  0.0000,  0.0000)
  26 O      5.347852    5.515600    0.000000    ( 0.0000,  0.0000,  0.0000)
  27 O     -0.743851    2.458762    0.000000    ( 0.0000,  0.0000,  0.0000)
  28 O      0.743850    2.458762    4.594000    ( 0.0000,  0.0000,  0.0000)
  29 O      3.860150    5.515600    4.594000    ( 0.0000,  0.0000,  0.0000)
  30 O     -2.846575    6.100789    4.594000    ( 0.0000,  0.0000,  0.0000)
  31 O      7.450576    1.873574    4.594000    ( 0.0000,  0.0000,  0.0000)
  32 O      2.102724    7.389175    4.594000    ( 0.0000,  0.0000,  0.0000)
  33 O      2.501276    0.585188    4.594000    ( 0.0000,  0.0000,  0.0000)
  34 O      3.926287    1.156973    1.343200    ( 0.0000,  0.0000,  0.0000)
  35 O      0.677713    6.817388    7.844801    ( 0.0000,  0.0000,  0.0000)
  36 O      6.242889    2.821778    1.343200    ( 0.0000,  0.0000,  0.0000)
  37 O     -1.638888    5.152586    7.844801    ( 0.0000,  0.0000,  0.0000)
  38 O      3.642826    3.995612    1.343200    ( 0.0000,  0.0000,  0.0000)
  39 O      0.961175    3.978751    7.844801    ( 0.0000,  0.0000,  0.0000)
  40 O      0.677713    6.817388    1.343200    ( 0.0000,  0.0000,  0.0000)
  41 O      3.926287    1.156973    7.844801    ( 0.0000,  0.0000,  0.0000)
  42 O     -1.638888    5.152586    1.343200    ( 0.0000,  0.0000,  0.0000)
  43 O      6.242889    2.821778    7.844801    ( 0.0000,  0.0000,  0.0000)
  44 O      0.961175    3.978751    1.343200    ( 0.0000,  0.0000,  0.0000)
  45 O      3.642826    3.995612    7.844801    ( 0.0000,  0.0000,  0.0000)
  46 O     -0.961175    3.978751    3.250800    ( 0.0000,  0.0000,  0.0000)
  47 O      5.565176    3.995612    5.937201    ( 0.0000,  0.0000,  0.0000)
  48 O     -0.677713    6.817388    3.250800    ( 0.0000,  0.0000,  0.0000)
  49 O      5.281713    1.156973    5.937201    ( 0.0000,  0.0000,  0.0000)
  50 O      1.638888    5.152586    3.250800    ( 0.0000,  0.0000,  0.0000)
  51 O      2.965112    2.821778    5.937201    ( 0.0000,  0.0000,  0.0000)
  52 O      5.565176    3.995612    3.250800    ( 0.0000,  0.0000,  0.0000)
  53 O     -0.961175    3.978751    5.937201    ( 0.0000,  0.0000,  0.0000)
  54 O      5.281713    1.156973    3.250800    ( 0.0000,  0.0000,  0.0000)
  55 O     -0.677713    6.817388    5.937201    ( 0.0000,  0.0000,  0.0000)
  56 O      2.965112    2.821778    3.250800    ( 0.0000,  0.0000,  0.0000)
  57 O      1.638888    5.152586    5.937201    ( 0.0000,  0.0000,  0.0000)
  58 Be     4.604000    0.000000   11.485000    ( 0.0000,  0.0000,  0.0000)
  59 Be     4.604000    0.000000   16.079001    ( 0.0000,  0.0000,  0.0000)
  60 Be    -2.302000    3.987181   11.485000    ( 0.0000,  0.0000,  0.0000)
  61 Be    -2.302000    3.987181   16.079001    ( 0.0000,  0.0000,  0.0000)
  62 Be     2.302000    3.987181   11.485000    ( 0.0000,  0.0000,  0.0000)
  63 Be     2.302000    3.987181   16.079001    ( 0.0000,  0.0000,  0.0000)
  64 Al     0.000000    5.316242   11.485000    ( 0.0000,  0.0000,  0.0000)
  65 Al     4.604000    2.658121   16.079001    ( 0.0000,  0.0000,  0.0000)
  66 Al     4.604000    2.658121   11.485000    ( 0.0000,  0.0000,  0.0000)
  67 Al     0.000000    5.316242   16.079001    ( 0.0000,  0.0000,  0.0000)
  68 Si     3.038655    0.921267    9.188000    ( 0.0000,  0.0000,  0.0000)
  69 Si     1.565346    7.053097    9.188000    ( 0.0000,  0.0000,  0.0000)
  70 Si     6.890834    2.170919    9.188000    ( 0.0000,  0.0000,  0.0000)
  71 Si    -2.286833    5.803444    9.188000    ( 0.0000,  0.0000,  0.0000)
  72 Si     3.882513    4.882177    9.188000    ( 0.0000,  0.0000,  0.0000)
  73 Si     0.721487    3.092185    9.188000    ( 0.0000,  0.0000,  0.0000)
  74 Si    -0.721487    3.092185   13.782001    ( 0.0000,  0.0000,  0.0000)
  75 Si     5.325488    4.882177   13.782001    ( 0.0000,  0.0000,  0.0000)
  76 Si    -1.565346    7.053097   13.782001    ( 0.0000,  0.0000,  0.0000)
  77 Si     6.169345    0.921267   13.782001    ( 0.0000,  0.0000,  0.0000)
  78 Si     2.286833    5.803444   13.782001    ( 0.0000,  0.0000,  0.0000)
  79 Si     2.317168    2.170919   13.782001    ( 0.0000,  0.0000,  0.0000)
  80 O      1.757425    1.873574    9.188000    ( 0.0000,  0.0000,  0.0000)
  81 O      2.846575    6.100789    9.188000    ( 0.0000,  0.0000,  0.0000)
  82 O      6.706725    0.585188    9.188000    ( 0.0000,  0.0000,  0.0000)
  83 O     -2.102725    7.389175    9.188000    ( 0.0000,  0.0000,  0.0000)
  84 O      5.347852    5.515600    9.188000    ( 0.0000,  0.0000,  0.0000)
  85 O     -0.743851    2.458762    9.188000    ( 0.0000,  0.0000,  0.0000)
  86 O      0.743850    2.458762   13.782001    ( 0.0000,  0.0000,  0.0000)
  87 O      3.860150    5.515600   13.782001    ( 0.0000,  0.0000,  0.0000)
  88 O     -2.846575    6.100789   13.782001    ( 0.0000,  0.0000,  0.0000)
  89 O      7.450576    1.873574   13.782001    ( 0.0000,  0.0000,  0.0000)
  90 O      2.102724    7.389175   13.782001    ( 0.0000,  0.0000,  0.0000)
  91 O      2.501276    0.585188   13.782001    ( 0.0000,  0.0000,  0.0000)
  92 O      3.926287    1.156973   10.531200    ( 0.0000,  0.0000,  0.0000)
  93 O      0.677713    6.817388   17.032801    ( 0.0000,  0.0000,  0.0000)
  94 O      6.242889    2.821778   10.531200    ( 0.0000,  0.0000,  0.0000)
  95 O     -1.638888    5.152586   17.032801    ( 0.0000,  0.0000,  0.0000)
  96 O      3.642826    3.995612   10.531200    ( 0.0000,  0.0000,  0.0000)
  97 O      0.961175    3.978751   17.032801    ( 0.0000,  0.0000,  0.0000)
  98 O      0.677713    6.817388   10.531200    ( 0.0000,  0.0000,  0.0000)
  99 O      3.926287    1.156973   17.032801    ( 0.0000,  0.0000,  0.0000)
 100 O     -1.638888    5.152586   10.531200    ( 0.0000,  0.0000,  0.0000)
 101 O      6.242889    2.821778   17.032801    ( 0.0000,  0.0000,  0.0000)
 102 O      0.961175    3.978751   10.531200    ( 0.0000,  0.0000,  0.0000)
 103 O      3.642826    3.995612   17.032801    ( 0.0000,  0.0000,  0.0000)
 104 O     -0.961175    3.978751   12.438800    ( 0.0000,  0.0000,  0.0000)
 105 O      5.565176    3.995612   15.125201    ( 0.0000,  0.0000,  0.0000)
 106 O     -0.677713    6.817388   12.438800    ( 0.0000,  0.0000,  0.0000)
 107 O      5.281713    1.156973   15.125201    ( 0.0000,  0.0000,  0.0000)
 108 O      1.638888    5.152586   12.438800    ( 0.0000,  0.0000,  0.0000)
 109 O      2.965112    2.821778   15.125201    ( 0.0000,  0.0000,  0.0000)
 110 O      5.565176    3.995612   12.438800    ( 0.0000,  0.0000,  0.0000)
 111 O     -0.961175    3.978751   15.125201    ( 0.0000,  0.0000,  0.0000)
 112 O      5.281713    1.156973   12.438800    ( 0.0000,  0.0000,  0.0000)
 113 O     -0.677713    6.817388   15.125201    ( 0.0000,  0.0000,  0.0000)
 114 O      2.965112    2.821778   12.438800    ( 0.0000,  0.0000,  0.0000)
 115 O      1.638888    5.152586   15.125201    ( 0.0000,  0.0000,  0.0000)

Unit cell:
           periodic     x           y           z      points  spacing
  1. axis:    yes    9.210000    0.000000    0.000000    40     0.1994
  2. axis:    yes   -4.605000    7.976094    0.000000    40     0.1994
  3. axis:    yes    0.000000    0.000000   18.380000    92     0.1998

  Lengths:   9.210000   9.210000  18.380000
  Angles:   90.000000  90.000000 120.000000

Effective grid spacing dv^(1/3) = 0.2093

                     log10-error:    total        iterations:
           time      wfs    density  energy       fermi  poisson
iter:   1  17:48:52  +1.82   +inf  -1005.822988    0      17     
iter:   2  17:49:24  +0.90   +inf  -1020.084093    0             
iter:   3  17:49:56  +0.20   +inf  -1023.692777    0             
iter:   4  17:50:35  -0.04  -0.72  -995.733809    0      9      
iter:   5  17:51:15  +0.59  -0.77  -909.875103    10     12     
iter:   6  17:51:53  +0.42  -1.20  -914.855855    0      8      
iter:   7  17:52:35  -0.33  -1.22  -917.147158    0      11     
iter:   8  17:53:17  -0.47  -1.71  -916.791233    0      9      
iter:   9  17:53:56  -0.52  -2.22  -917.031166    0      7      
iter:  10  17:54:35  -1.22  -2.26  -917.080227    0      8      
iter:  11  17:55:12  -1.40  -2.62  -917.140526    0      7      
iter:  12  17:55:50  -1.69  -2.42  -917.144246    0      8      
iter:  13  17:56:28  -2.29  -2.76  -917.153058    0      7      
iter:  14  17:57:05  -2.14  -2.82  -917.183542    0      7      
iter:  15  17:57:46  -2.12  -2.54  -917.153382    0      7      
iter:  16  17:58:23  -2.93  -3.16  -917.154241    0      5      
iter:  17  17:58:59  -3.40  -3.19  -917.153340    0      4      
iter:  18  17:59:37  -3.67  -3.23  -917.153262    0      6      
iter:  19  18:00:13  -3.64  -3.35  -917.154335    0      5      
iter:  20  18:00:50  -4.18  -3.85  -917.153399    0      3      
iter:  21  18:01:27  -4.61  -3.86  -917.153914    0      4      
iter:  22  18:02:05  -4.87  -3.94  -917.154144    0      4      
iter:  23  18:02:42  -4.98  -4.06  -917.153374    0      3      
iter:  24  18:03:21  -5.51  -4.09  -917.152954    0      2      
iter:  25  18:03:58  -5.65  -4.12  -917.153598    0      3      
iter:  26  18:04:35  -5.92  -4.25  -917.154238    0      3      
iter:  27  18:05:13  -6.22  -4.28  -917.154104    0      2      
iter:  28  18:05:50  -6.29  -4.31  -917.153205    0      4      
iter:  29  18:06:27  -6.43  -4.72  -917.154434    0      2      
iter:  30  18:07:04  -6.90  -4.81  -917.154998    0      1      
iter:  31  18:07:40  -7.01  -4.86  -917.153492    0      2      
iter:  32  18:08:16  -7.16  -4.97  -917.153714    0      2      
iter:  33  18:08:56  -7.53  -5.04  -917.153247    0      2      

Converged after 33 iterations.

Dipole moment: (2.157324, 3.736537, -79.046909) |e|*Ang

Energy contributions relative to reference atoms: (reference = -393819.233490)

Kinetic:       +1248.460369
Potential:     -1227.157966
External:        +0.000000
XC:            -1002.618300
Entropy (-ST):   -0.000000
Local:          +64.162650
--------------------------
Free energy:   -917.153247
Extrapolated:  -917.153247

Fermi level: 4.65748

 Band  Eigenvalues  Occupancy
    0    -17.39691    2.00000
    1    -17.26811    2.00000
    2    -17.26593    2.00000
    3    -17.09420    2.00000
    4    -16.75201    2.00000
    5    -16.74830    2.00000
    6    -16.71968    2.00000
    7    -16.71843    2.00000
    8    -16.71566    2.00000
    9    -16.71439    2.00000
   10    -16.68484    2.00000
   11    -16.68090    2.00000
   12    -16.48245    2.00000
   13    -16.47941    2.00000
   14    -16.36043    2.00000
   15    -16.35780    2.00000
   16    -16.35633    2.00000
   17    -16.35367    2.00000
   18    -16.34574    2.00000
   19    -16.18435    2.00000
   20    -16.17936    2.00000
   21    -16.16541    2.00000
   22    -16.15753    2.00000
   23    -16.11986    2.00000
   24    -15.93380    2.00000
   25    -15.92847    2.00000
   26    -15.80083    2.00000
   27    -15.79038    2.00000
   28    -15.56035    2.00000
   29    -15.56022    2.00000
   30    -15.50523    2.00000
   31    -15.47106    2.00000
   32    -15.46825    2.00000
   33    -15.46717    2.00000
   34    -15.46513    2.00000
   35    -15.46284    2.00000
   36    -15.46050    2.00000
   37    -15.46030    2.00000
   38    -15.43229    2.00000
   39    -15.42853    2.00000
   40    -15.42521    2.00000
   41    -15.32970    2.00000
   42    -15.32801    2.00000
   43    -15.29071    2.00000
   44    -15.28930    2.00000
   45    -15.28355    2.00000
   46    -15.28215    2.00000
   47    -15.21908    2.00000
   48    -15.21818    2.00000
   49    -15.14126    2.00000
   50    -15.14009    2.00000
   51    -15.10801    2.00000
   52    -15.05027    2.00000
   53    -15.04249    2.00000
   54    -15.00790    2.00000
   55    -15.00314    2.00000
   56    -15.00224    2.00000
   57    -14.99985    2.00000
   58    -14.99550    2.00000
   59    -14.99452    2.00000
   60    -14.96624    2.00000
   61    -14.87833    2.00000
   62    -14.87691    2.00000
   63    -14.84739    2.00000
   64    -14.84690    2.00000
   65    -14.75153    2.00000
   66    -14.75046    2.00000
   67    -14.74342    2.00000
   68    -14.74236    2.00000
   69    -14.71974    2.00000
   70    -14.64313    2.00000
   71    -14.64227    2.00000
   72     -7.20597    2.00000
   73     -6.88254    2.00000
   74     -6.87918    2.00000
   75     -6.52103    2.00000
   76     -6.44186    2.00000
   77     -6.43733    2.00000
   78     -6.18781    2.00000
   79     -6.18468    2.00000
   80     -6.18193    2.00000
   81     -6.17903    2.00000
   82     -5.91502    2.00000
   83     -5.90852    2.00000
   84     -5.24657    2.00000
   85     -5.10009    2.00000
   86     -5.09643    2.00000
   87     -4.79575    2.00000
   88     -4.79498    2.00000
   89     -4.79131    2.00000
   90     -4.78994    2.00000
   91     -4.78894    2.00000
   92     -4.78545    2.00000
   93     -4.37072    2.00000
   94     -4.36469    2.00000
   95     -4.20045    2.00000
   96     -4.18619    2.00000
   97     -4.08572    2.00000
   98     -4.07958    2.00000
   99     -3.98895    2.00000
  100     -3.90958    2.00000
  101     -3.83629    2.00000
  102     -3.83440    2.00000
  103     -3.81232    2.00000
  104     -3.81015    2.00000
  105     -3.80788    2.00000
  106     -3.80564    2.00000
  107     -3.79608    2.00000
  108     -3.79350    2.00000
  109     -3.76951    2.00000
  110     -3.76779    2.00000
  111     -3.67992    2.00000
  112     -3.67757    2.00000
  113     -3.64635    2.00000
  114     -3.63987    2.00000
  115     -3.63888    2.00000
  116     -3.63408    2.00000
  117     -3.63308    2.00000
  118     -3.49185    2.00000
  119     -3.48994    2.00000
  120     -2.60521    2.00000
  121     -2.60191    2.00000
  122     -2.52202    2.00000
  123     -2.51948    2.00000
  124     -2.49190    2.00000
  125     -2.38539    2.00000
  126     -2.34276    2.00000
  127     -2.27651    2.00000
  128     -2.26903    2.00000
  129     -2.26626    2.00000
  130     -2.25192    2.00000
  131     -2.24771    2.00000
  132     -2.24700    2.00000
  133     -2.24280    2.00000
  134     -2.20755    2.00000
  135     -2.20684    2.00000
  136     -2.12708    2.00000
  137     -1.98263    2.00000
  138     -1.98117    2.00000
  139     -1.96800    2.00000
  140     -1.93474    2.00000
  141     -1.92986    2.00000
  142     -1.92064    2.00000
  143     -1.91965    2.00000
  144     -1.89706    2.00000
  145     -1.88570    2.00000
  146     -1.88488    2.00000
  147     -1.88128    2.00000
  148     -1.88050    2.00000
  149     -1.84308    2.00000
  150     -1.84103    2.00000
  151     -1.62057    2.00000
  152     -1.61999    2.00000
  153     -1.58887    2.00000
  154     -1.58655    2.00000
  155     -1.58065    2.00000
  156     -1.57837    2.00000
  157     -1.48345    2.00000
  158     -1.47291    2.00000
  159     -1.46384    2.00000
  160     -1.38319    2.00000
  161     -1.37818    2.00000
  162     -1.35900    2.00000
  163     -1.35524    2.00000
  164     -1.33038    2.00000
  165     -1.29350    2.00000
  166     -1.29097    2.00000
  167     -1.28361    2.00000
  168     -1.18076    2.00000
  169     -1.18006    2.00000
  170     -1.17474    2.00000
  171     -1.17405    2.00000
  172     -1.15089    2.00000
  173     -1.12279    2.00000
  174     -1.12233    2.00000
  175     -1.11741    2.00000
  176     -1.11692    2.00000
  177     -1.10666    2.00000
  178     -0.98188    2.00000
  179     -0.97984    2.00000
  180     -0.89476    2.00000
  181     -0.89199    2.00000
  182     -0.87557    2.00000
  183     -0.87319    2.00000
  184     -0.84980    2.00000
  185     -0.84728    2.00000
  186     -0.50319    2.00000
  187     -0.50263    2.00000
  188     -0.47557    2.00000
  189     -0.46047    2.00000
  190     -0.45340    2.00000
  191     -0.41930    2.00000
  192     -0.41797    2.00000
  193     -0.40789    2.00000
  194     -0.40416    2.00000
  195     -0.40142    2.00000
  196     -0.39769    2.00000
  197     -0.25304    2.00000
  198     -0.25151    2.00000
  199     -0.11829    2.00000
  200     -0.07305    2.00000
  201     -0.06383    2.00000
  202      0.00841    2.00000
  203      0.01213    2.00000
  204      0.01902    2.00000
  205      0.02268    2.00000
  206      0.09478    2.00000
  207      0.09937    2.00000
  208      0.19739    2.00000
  209      0.20285    2.00000
  210      0.21345    2.00000
  211      0.22722    2.00000
  212      0.22981    2.00000
  213      0.23513    2.00000
  214      0.23771    2.00000
  215      0.25415    2.00000
  216      0.25611    2.00000
  217      0.27588    2.00000
  218      0.28482    2.00000
  219      0.33395    2.00000
  220      0.34191    2.00000
  221      0.47988    2.00000
  222      0.50792    2.00000
  223      0.54356    2.00000
  224      0.54429    2.00000
  225      0.54745    2.00000
  226      0.54815    2.00000
  227      0.55579    2.00000
  228      0.55852    2.00000
  229      0.57422    2.00000
  230      0.57511    2.00000
  231      0.57606    2.00000
  232      0.58045    2.00000
  233      0.58220    2.00000
  234      0.60542    2.00000
  235      0.60829    2.00000
  236      0.66713    2.00000
  237      0.66797    2.00000
  238      0.67086    2.00000
  239      0.67120    2.00000
  240      0.73864    2.00000
  241      0.74379    2.00000
  242      0.75788    2.00000
  243      0.76072    2.00000
  244      0.78708    2.00000
  245      0.83520    2.00000
  246      0.83712    2.00000
  247      0.83948    2.00000
  248      0.85077    2.00000
  249      0.85505    2.00000
  250      0.88098    2.00000
  251      0.88556    2.00000
  252      0.98004    2.00000
  253      0.98186    2.00000
  254      0.98583    2.00000
  255      0.98778    2.00000
  256      1.00280    2.00000
  257      1.01310    2.00000
  258      1.02228    2.00000
  259      1.04417    2.00000
  260      1.04718    2.00000
  261      1.14564    2.00000
  262      1.14894    2.00000
  263      1.15814    2.00000
  264      1.16376    2.00000
  265      1.18578    2.00000
  266      1.19535    2.00000
  267      1.21123    2.00000
  268      1.21204    2.00000
  269      1.23702    2.00000
  270      1.24151    2.00000
  271      1.32003    2.00000
  272      1.48344    2.00000
  273      1.48635    2.00000
  274      1.49108    2.00000
  275      1.49399    2.00000
  276      1.54617    2.00000
  277      1.70875    2.00000
  278      1.71060    2.00000
  279      1.71503    2.00000
  280      1.71659    2.00000
  281      1.71690    2.00000
  282      1.72351    2.00000
  283      1.74825    2.00000
  284      1.75381    2.00000
  285      1.89748    2.00000
  286      2.10603    2.00000
  287      2.10826    2.00000
  288      7.74040    0.00000
  289      8.47005    0.00000
  290      8.47323    0.00000
  291      9.74133    0.00000
  292      9.83045    0.00000
  293     10.05612    0.00000
  294     10.07275    0.00000
  295     10.08035    0.00000
  296     10.25578    0.00000
  297     10.26007    0.00000
  298     10.37137    0.00000
  299     10.37648    0.00000
  300     10.57528    0.00000
  301     10.57945    0.00000
  302     10.65556    0.00000
  303     10.65950    0.00000
  304     10.66040    0.00000
  305     10.66432    0.00000
  306     10.67150    0.00000
  307     10.67612    0.00000
  308     10.70696    0.00000
  309     10.98705    0.00000
  310     10.99388    0.00000
  311     10.99512    0.00000
  312     11.00194    0.00000
  313     11.18569    0.00000
  314     11.18782    0.00000
  315     11.19212    0.00000
  316     11.19221    0.00000
  317     11.19507    0.00000
  318     11.31167    0.00000
  319     11.31452    0.00000
  320     11.34620    0.00000
  321     11.35239    0.00000
  322     11.50210    0.00000
  323     11.50549    0.00000
  324     11.59596    0.00000
  325     11.60709    0.00000
  326     11.60944    0.00000
  327     11.61475    0.00000
  328     11.61816    0.00000
  329     11.62107    0.00000
  330     11.62420    0.00000
  331     11.67610    0.00000
  332     11.69125    0.00000
  333     11.74724    0.00000
  334     11.78483    0.00000
  335     11.78745    0.00000
  336     11.85154    0.00000
  337     11.85320    0.00000
  338     11.92757    0.00000
  339     11.93091    0.00000
  340     11.93409    0.00000
  341     11.93744    0.00000
  342     11.94454    0.00000
  343     11.94528    0.00000
  344     12.07979    0.00000
  345     12.08708    0.00000
  346     12.10229    0.00000
  347     12.10487    0.00000
  348     12.25433    0.00000
  349     12.25503    0.00000
  350     12.27832    0.00000
  351     12.27879    0.00000
  352     12.27996    0.00000
  353     12.28046    0.00000
  354     12.35037    0.00000
  355     12.53837    0.00000
  356     12.54122    0.00000
  357     12.54350    0.00000
  358     12.54637    0.00000
  359     12.61334    0.00000
  360     12.62340    0.00000
  361     12.62845    0.00000
  362     12.62927    0.00000
  363     12.70824    0.00000
  364     12.71408    0.00000
  365     12.73995    0.00000
  366     12.79558    0.00000
  367     12.86903    0.00000
  368     12.90385    0.00000
  369     12.90495    0.00000
  370     13.14775    0.00000
  371     13.14957    0.00000
  372     13.16652    0.00000
  373     13.17705    0.00000
  374     13.17736    0.00000
  375     13.29683    0.00000
  376     13.33367    0.00000
  377     13.33644    0.00000
  378     13.62566    0.00000
  379     13.63033    0.00000
  380     13.63174    0.00000
  381     13.63633    0.00000
  382     13.64883    0.00000
  383     13.65759    0.00000
  384     13.68270    0.00000
  385     13.68387    0.00000
  386     13.68493    0.00000
  387     13.68610    0.00000
  388     13.76475    0.00000
  389     13.77251    0.00000
  390     13.77807    0.00000
  391     13.86225    0.00000
  392     13.88601    0.00000
  393     13.89726    0.00000
  394     13.90336    0.00000
  395     13.95659    0.00000
  396     13.97324    0.00000
  397     13.98110    0.00000
  398     13.98310    0.00000
  399     13.98451    0.00000
  400     14.14016    0.00000
  401     14.16938    0.00000
  402     14.17286    0.00000
  403     14.18236    0.00000
  404     14.32425    0.00000
  405     14.32884    0.00000
  406     14.60982    0.00000
  407     14.61110    0.00000
  408     14.64418    0.00000
  409     14.64868    0.00000
  410     14.70086    0.00000
  411     14.79644    0.00000
  412     14.79992    0.00000
  413     14.80252    0.00000
  414     14.80590    0.00000
  415     14.86813    0.00000
  416     14.90196    0.00000
  417     14.90242    0.00000
  418     14.90641    0.00000
  419     14.90688    0.00000
  420     14.90918    0.00000
  421     14.91236    0.00000
  422     15.12351    0.00000
  423     15.13654    0.00000
  424     15.15441    0.00000
  425     15.15451    0.00000
  426     15.17871    0.00000
  427     15.17924    0.00000
  428     15.28647    0.00000
  429     15.34406    0.00000
  430     15.34579    0.00000
  431     15.34773    0.00000
  432     15.34936    0.00000
  433     15.38156    0.00000
  434     15.38963    0.00000
  435     15.39207    0.00000
  436     15.40014    0.00000
  437     15.49108    0.00000
  438     15.49541    0.00000
  439     15.55383    0.00000
  440     15.56089    0.00000
  441     15.81349    0.00000
  442     15.87188    0.00000
  443     15.87411    0.00000
  444     16.16723    0.00000
  445     16.17682    0.00000
  446     16.54442    0.00000
  447     16.56898    0.00000
  448     16.57564    0.00000
  449     16.58175    0.00000
  450     16.60863    0.00000
  451     16.61340    0.00000
  452     16.63821    0.00000
  453     16.64327    0.00000
  454     16.67698    0.00000
  455     16.69483    0.00000
  456     16.70496    0.00000
  457     16.70675    0.00000
  458     16.93180    0.00000
  459     16.93564    0.00000
  460     16.93818    0.00000
  461     16.94191    0.00000
  462     17.41766    0.00000
  463     17.62918    0.00000


Forces in eV/Ang:
  0 Be    0.00671   -0.01763    0.00141
  1 Be    0.00672   -0.01763    0.00470
  2 Be   -0.01859   -0.00299    0.00361
  3 Be   -0.01860   -0.00298    0.00249
  4 Be    0.00072    0.00128    0.00251
  5 Be    0.00072    0.00130    0.00361
  6 Al    0.00443    0.00585    0.00179
  7 Al    0.00292    0.00685    0.00286
  8 Al    0.00293    0.00686    0.00424
  9 Al    0.00444    0.00586    0.00531
 10 Si    0.20860    0.05760   -0.09762
 11 Si   -0.21370   -0.05984   -0.09762
 12 Si   -0.10176    0.16296   -0.09765
 13 Si    0.09774   -0.16512   -0.09764
 14 Si   -0.03392   -0.21900   -0.09764
 15 Si    0.03317    0.22102   -0.09764
 16 Si   -0.03849    0.15678    0.00447
 17 Si    0.03914   -0.16219    0.00443
 18 Si    0.13982    0.00748    0.00442
 19 Si   -0.13961   -0.01213    0.00445
 20 Si   -0.13296   -0.09941    0.00446
 21 Si    0.13499    0.09979    0.00447
 22 O    -0.10381   -0.11489    0.00231
 23 O     0.09682    0.09564    0.00232
 24 O     0.15329   -0.11878    0.00233
 25 O    -0.16232    0.11784    0.00233
 26 O     0.02720    0.17703    0.00233
 27 O    -0.02219   -0.18573    0.00234
 28 O    -0.04798   -0.14863   -0.00401
 29 O     0.03494    0.13305   -0.00407
 30 O    -0.18153    0.07584   -0.00401
 31 O     0.18528   -0.08407   -0.00399
 32 O     0.14216    0.11276   -0.00404
 33 O    -0.15210   -0.11253   -0.00400
 34 O    -0.01843    0.07494    0.15865
 35 O     0.01167   -0.05971   -0.16850
 36 O    -0.06933   -0.00167    0.16052
 37 O     0.07446   -0.00600   -0.16984
 38 O     0.08249   -0.08670    0.16237
 39 O    -0.08620    0.08141   -0.16673
 40 O     0.01331   -0.06418    0.16090
 41 O    -0.01684    0.07153   -0.16472
 42 O     0.07661   -0.00294    0.16344
 43 O    -0.06627    0.00194   -0.16806
 44 O    -0.08994    0.08185    0.16077
 45 O     0.07874   -0.08627   -0.16874
 46 O     0.07148    0.02119   -0.16761
 47 O    -0.06480   -0.01874    0.16678
 48 O     0.03372   -0.05827   -0.16974
 49 O    -0.03762    0.06593    0.16920
 50 O    -0.11540    0.02636   -0.17179
 51 O     0.11601   -0.04002    0.16735
 52 O    -0.05913   -0.02005   -0.17062
 53 O     0.07613    0.01957    0.16498
 54 O    -0.04131    0.06291   -0.17217
 55 O     0.02986   -0.06254    0.16585
 56 O     0.11494   -0.03522   -0.16996
 57 O    -0.11626    0.03109    0.16888
 58 Be    0.00673   -0.01764    0.00310
 59 Be    0.00674   -0.01762    0.01078
 60 Be   -0.01860   -0.00296    0.00531
 61 Be   -0.01863   -0.00296    0.00859
 62 Be    0.00074    0.00130    0.00419
 63 Be    0.00073    0.00132    0.00970
 64 Al    0.00444    0.00585    0.00279
 65 Al    0.00291    0.00685    0.00774
 66 Al    0.00291    0.00685    0.00524
 67 Al    0.00443    0.00584    0.01019
 68 Si    0.15553    0.04394    0.00456
 69 Si   -0.16065   -0.04618    0.00448
 70 Si   -0.06337    0.12385    0.00448
 71 Si    0.05934   -0.12598    0.00455
 72 Si   -0.01925   -0.16620    0.00455
 73 Si    0.01851    0.16821    0.00455
 74 Si   -0.03865    0.15769    0.00489
 75 Si    0.03930   -0.16313    0.00480
 76 Si    0.14071    0.00715    0.00480
 77 Si   -0.14047   -0.01179    0.00492
 78 Si   -0.13369   -0.09999    0.00492
 79 Si    0.13571    0.10038    0.00490
 80 O    -0.10511   -0.11661   -0.00651
 81 O     0.09847    0.09773   -0.00670
 82 O     0.15589   -0.11919   -0.00669
 83 O    -0.16481    0.11867   -0.00657
 84 O     0.02659    0.17964   -0.00653
 85 O    -0.02131   -0.18774   -0.00646
 86 O    -0.04805   -0.14840   -0.00841
 87 O     0.03511    0.13374   -0.00877
 88 O    -0.18205    0.07634   -0.00881
 89 O     0.18601   -0.08426   -0.00842
 90 O     0.14268    0.11329   -0.00830
 91 O    -0.15193   -0.11237   -0.00833
 92 O    -0.02201    0.07830    0.16600
 93 O     0.06791   -0.04183   -0.06259
 94 O    -0.07114   -0.00736    0.16702
 95 O     0.03119    0.03362   -0.06222
 96 O     0.08700   -0.08490    0.16956
 97 O    -0.09936    0.02420   -0.05912
 98 O     0.01739   -0.06854    0.16750
 99 O    -0.07292    0.05438   -0.05717
100 O     0.07733    0.00187    0.17054
101 O    -0.02258   -0.03782   -0.06226
102 O    -0.09468    0.08049    0.16814
103 O     0.09144   -0.02900   -0.06095
104 O     0.06871    0.02155   -0.16077
105 O    -0.07032   -0.02018    0.16674
106 O     0.03539   -0.05507   -0.16459
107 O    -0.03629    0.07009    0.16943
108 O    -0.11422    0.02362   -0.16502
109 O     0.11945   -0.04297    0.16783
110 O    -0.05554   -0.01989   -0.16546
111 O     0.08041    0.02103    0.16538
112 O    -0.04312    0.06048   -0.16550
113 O     0.02834   -0.06807    0.16584
114 O     0.11387   -0.03267   -0.16301
115 O    -0.11920    0.03427    0.16914

System changes: positions 

Initializing position-dependent things.

Density initialized from wave functions
                                              
                                              
                                              
                                              
                    O                         
             O                                
                 AlO     O                    
           Be        OBe       O              
              OSi       O  Al O               
           O           OiBeO  Si              
              Si O          O                 
              O  O   Si       O  O            
                 Al OO O      Si              
           BeO        Be   AO                 
            Si     O  Si O                    
                    O    BeSi  O              
             OO   Si    O                     
                   OO Si O      Si            
           Be    Al   Be       O              
               Si    O  O  Al O               
           O  O        Oi  O                  
                 O       Be O Si              
              Si O   Si          O            
              O  Al OO        Si              
           BeO        BO                      
             O     O  Si O AO                 
            Si           BeSi  O              
                  Si    O                     
              O     O           Si            
                      Si       O              
                                              
                                              
                                              
                                              

Positions:
   0 Be     4.604096   -0.000252    2.297020    ( 0.0000,  0.0000,  0.0000)
   1 Be     4.604096   -0.000252    6.891068    ( 0.0000,  0.0000,  0.0000)
   2 Be    -2.302266    3.987139    2.297052    ( 0.0000,  0.0000,  0.0000)
   3 Be    -2.302266    3.987139    6.891036    ( 0.0000,  0.0000,  0.0000)
   4 Be     2.302011    3.987200    2.297036    ( 0.0000,  0.0000,  0.0000)
   5 Be     2.302011    3.987200    6.891052    ( 0.0000,  0.0000,  0.0000)
   6 Al     0.000063    5.316326    2.297026    ( 0.0000,  0.0000,  0.0000)
   7 Al     4.604042    2.658219    6.891042    ( 0.0000,  0.0000,  0.0000)
   8 Al     4.604042    2.658219    2.297061    ( 0.0000,  0.0000,  0.0000)
   9 Al     0.000063    5.316326    6.891077    ( 0.0000,  0.0000,  0.0000)
  10 Si     3.041635    0.922090   -0.001395    ( 0.0000,  0.0000,  0.0000)
  11 Si     1.562293    7.052242   -0.001395    ( 0.0000,  0.0000,  0.0000)
  12 Si     6.889380    2.173247   -0.001395    ( 0.0000,  0.0000,  0.0000)
  13 Si    -2.285437    5.801085   -0.001395    ( 0.0000,  0.0000,  0.0000)
  14 Si     3.882029    4.879049   -0.001395    ( 0.0000,  0.0000,  0.0000)
  15 Si     0.721961    3.095343   -0.001395    ( 0.0000,  0.0000,  0.0000)
  16 Si    -0.722037    3.094425    4.594064    ( 0.0000,  0.0000,  0.0000)
  17 Si     5.326047    4.879860    4.594064    ( 0.0000,  0.0000,  0.0000)
  18 Si    -1.563349    7.053204    4.594064    ( 0.0000,  0.0000,  0.0000)
  19 Si     6.167351    0.921094    4.594064    ( 0.0000,  0.0000,  0.0000)
  20 Si     2.284934    5.802023    4.594064    ( 0.0000,  0.0000,  0.0000)
  21 Si     2.319097    2.172345    4.594064    ( 0.0000,  0.0000,  0.0000)
  22 O      1.755942    1.871933    0.000033    ( 0.0000,  0.0000,  0.0000)
  23 O      2.847958    6.102155    0.000033    ( 0.0000,  0.0000,  0.0000)
  24 O      6.708915    0.583491    0.000033    ( 0.0000,  0.0000,  0.0000)
  25 O     -2.105044    7.390858    0.000033    ( 0.0000,  0.0000,  0.0000)
  26 O      5.348240    5.518129    0.000033    ( 0.0000,  0.0000,  0.0000)
  27 O     -0.744168    2.456109    0.000033    ( 0.0000,  0.0000,  0.0000)
  28 O      0.743165    2.456639    4.593943    ( 0.0000,  0.0000,  0.0000)
  29 O      3.860649    5.517501    4.593942    ( 0.0000,  0.0000,  0.0000)
  30 O     -2.849168    6.101872    4.593943    ( 0.0000,  0.0000,  0.0000)
  31 O      7.453222    1.872373    4.593944    ( 0.0000,  0.0000,  0.0000)
  32 O      2.104755    7.390785    4.593943    ( 0.0000,  0.0000,  0.0000)
  33 O      2.499104    0.583580    4.593943    ( 0.0000,  0.0000,  0.0000)
  34 O      3.926024    1.158044    1.345466    ( 0.0000,  0.0000,  0.0000)
  35 O      0.677880    6.816535    7.842394    ( 0.0000,  0.0000,  0.0000)
  36 O      6.241898    2.821755    1.345493    ( 0.0000,  0.0000,  0.0000)
  37 O     -1.637824    5.152500    7.842375    ( 0.0000,  0.0000,  0.0000)
  38 O      3.644004    3.994373    1.345520    ( 0.0000,  0.0000,  0.0000)
  39 O      0.959944    3.979915    7.842419    ( 0.0000,  0.0000,  0.0000)
  40 O      0.677903    6.816472    1.345499    ( 0.0000,  0.0000,  0.0000)
  41 O      3.926047    1.157995    7.842448    ( 0.0000,  0.0000,  0.0000)
  42 O     -1.637793    5.152544    1.345535    ( 0.0000,  0.0000,  0.0000)
  43 O      6.241942    2.821806    7.842400    ( 0.0000,  0.0000,  0.0000)
  44 O      0.959890    3.979921    1.345497    ( 0.0000,  0.0000,  0.0000)
  45 O      3.643950    3.994379    7.842390    ( 0.0000,  0.0000,  0.0000)
  46 O     -0.960154    3.979054    3.248406    ( 0.0000,  0.0000,  0.0000)
  47 O      5.564250    3.995344    5.939583    ( 0.0000,  0.0000,  0.0000)
  48 O     -0.677231    6.816556    3.248376    ( 0.0000,  0.0000,  0.0000)
  49 O      5.281176    1.157915    5.939618    ( 0.0000,  0.0000,  0.0000)
  50 O      1.637239    5.152962    3.248346    ( 0.0000,  0.0000,  0.0000)
  51 O      2.966770    2.821207    5.939591    ( 0.0000,  0.0000,  0.0000)
  52 O      5.564331    3.995325    3.248363    ( 0.0000,  0.0000,  0.0000)
  53 O     -0.960088    3.979031    5.939557    ( 0.0000,  0.0000,  0.0000)
  54 O      5.281123    1.157872    3.248341    ( 0.0000,  0.0000,  0.0000)
  55 O     -0.677287    6.816495    5.939570    ( 0.0000,  0.0000,  0.0000)
  56 O      2.966754    2.821275    3.248372    ( 0.0000,  0.0000,  0.0000)
  57 O      1.637227    5.153030    5.939613    ( 0.0000,  0.0000,  0.0000)
  58 Be     4.604097   -0.000252   11.485045    ( 0.0000,  0.0000,  0.0000)
  59 Be     4.604097   -0.000252   16.079155    ( 0.0000,  0.0000,  0.0000)
  60 Be    -2.302266    3.987139   11.485076    ( 0.0000,  0.0000,  0.0000)
  61 Be    -2.302267    3.987139   16.079123    ( 0.0000,  0.0000,  0.0000)
  62 Be     2.302011    3.987200   11.485060    ( 0.0000,  0.0000,  0.0000)
  63 Be     2.302011    3.987200   16.079139    ( 0.0000,  0.0000,  0.0000)
  64 Al     0.000063    5.316326   11.485040    ( 0.0000,  0.0000,  0.0000)
  65 Al     4.604042    2.658219   16.079111    ( 0.0000,  0.0000,  0.0000)
  66 Al     4.604042    2.658219   11.485075    ( 0.0000,  0.0000,  0.0000)
  67 Al     0.000063    5.316326   16.079146    ( 0.0000,  0.0000,  0.0000)
  68 Si     3.040877    0.921895    9.188065    ( 0.0000,  0.0000,  0.0000)
  69 Si     1.563051    7.052437    9.188064    ( 0.0000,  0.0000,  0.0000)
  70 Si     6.889928    2.172688    9.188064    ( 0.0000,  0.0000,  0.0000)
  71 Si    -2.285985    5.801644    9.188065    ( 0.0000,  0.0000,  0.0000)
  72 Si     3.882238    4.879803    9.188065    ( 0.0000,  0.0000,  0.0000)
  73 Si     0.721752    3.094588    9.188065    ( 0.0000,  0.0000,  0.0000)
  74 Si    -0.722039    3.094438   13.782070    ( 0.0000,  0.0000,  0.0000)
  75 Si     5.326049    4.879847   13.782069    ( 0.0000,  0.0000,  0.0000)
  76 Si    -1.563336    7.053199   13.782069    ( 0.0000,  0.0000,  0.0000)
  77 Si     6.167339    0.921099   13.782071    ( 0.0000,  0.0000,  0.0000)
  78 Si     2.284923    5.802015   13.782071    ( 0.0000,  0.0000,  0.0000)
  79 Si     2.319107    2.172353   13.782070    ( 0.0000,  0.0000,  0.0000)
  80 O      1.755924    1.871908    9.187907    ( 0.0000,  0.0000,  0.0000)
  81 O      2.847982    6.102185    9.187904    ( 0.0000,  0.0000,  0.0000)
  82 O      6.708952    0.583485    9.187904    ( 0.0000,  0.0000,  0.0000)
  83 O     -2.105079    7.390870    9.187906    ( 0.0000,  0.0000,  0.0000)
  84 O      5.348231    5.518167    9.187907    ( 0.0000,  0.0000,  0.0000)
  85 O     -0.744156    2.456080    9.187908    ( 0.0000,  0.0000,  0.0000)
  86 O      0.743164    2.456642   13.781880    ( 0.0000,  0.0000,  0.0000)
  87 O      3.860652    5.517511   13.781875    ( 0.0000,  0.0000,  0.0000)
  88 O     -2.849176    6.101879   13.781875    ( 0.0000,  0.0000,  0.0000)
  89 O      7.453233    1.872371   13.781880    ( 0.0000,  0.0000,  0.0000)
  90 O      2.104762    7.390793   13.781882    ( 0.0000,  0.0000,  0.0000)
  91 O      2.499106    0.583583   13.781882    ( 0.0000,  0.0000,  0.0000)
  92 O      3.925973    1.158092   10.533571    ( 0.0000,  0.0000,  0.0000)
  93 O      0.678683    6.816791   17.031907    ( 0.0000,  0.0000,  0.0000)
  94 O      6.241873    2.821673   10.533586    ( 0.0000,  0.0000,  0.0000)
  95 O     -1.638442    5.153066   17.031912    ( 0.0000,  0.0000,  0.0000)
  96 O      3.644068    3.994399   10.533622    ( 0.0000,  0.0000,  0.0000)
  97 O      0.959756    3.979097   17.031956    ( 0.0000,  0.0000,  0.0000)
  98 O      0.677961    6.816409   10.533593    ( 0.0000,  0.0000,  0.0000)
  99 O      3.925246    1.157750   17.031984    ( 0.0000,  0.0000,  0.0000)
 100 O     -1.637783    5.152612   10.533636    ( 0.0000,  0.0000,  0.0000)
 101 O      6.242566    2.821238   17.031911    ( 0.0000,  0.0000,  0.0000)
 102 O      0.959823    3.979901   10.533602    ( 0.0000,  0.0000,  0.0000)
 103 O      3.644132    3.995197   17.031930    ( 0.0000,  0.0000,  0.0000)
 104 O     -0.960194    3.979059   12.436504    ( 0.0000,  0.0000,  0.0000)
 105 O      5.564171    3.995323   15.127583    ( 0.0000,  0.0000,  0.0000)
 106 O     -0.677207    6.816602   12.436449    ( 0.0000,  0.0000,  0.0000)
 107 O      5.281195    1.157974   15.127621    ( 0.0000,  0.0000,  0.0000)
 108 O      1.637256    5.152923   12.436443    ( 0.0000,  0.0000,  0.0000)
 109 O      2.966819    2.821165   15.127598    ( 0.0000,  0.0000,  0.0000)
 110 O      5.564382    3.995327   12.436437    ( 0.0000,  0.0000,  0.0000)
 111 O     -0.960027    3.979052   15.127563    ( 0.0000,  0.0000,  0.0000)
 112 O      5.281097    1.157837   12.436436    ( 0.0000,  0.0000,  0.0000)
 113 O     -0.677308    6.816416   15.127570    ( 0.0000,  0.0000,  0.0000)
 114 O      2.966739    2.821312   12.436472    ( 0.0000,  0.0000,  0.0000)
 115 O      1.637185    5.153075   15.127617    ( 0.0000,  0.0000,  0.0000)

Unit cell:
           periodic     x           y           z      points  spacing
  1. axis:    yes    9.210000    0.000000    0.000000    40     0.1994
  2. axis:    yes   -4.605000    7.976094    0.000000    40     0.1994
  3. axis:    yes    0.000000    0.000000   18.380000    92     0.1998

  Lengths:   9.210000   9.210000  18.380000
  Angles:   90.000000  90.000000 120.000000

Effective grid spacing dv^(1/3) = 0.2093

                     log10-error:    total        iterations:
           time      wfs    density  energy       fermi  poisson
iter:   1  18:10:05  -0.82   +inf  -917.420923    0      15     
iter:   2  18:10:44  -1.31  -2.18  -917.447741    0      5      
iter:   3  18:11:33  -2.36  -2.23  -917.248598    0      16     
iter:   4  18:12:18  -2.49  -2.51  -917.199409    0      17     
iter:   5  18:13:02  -2.64  -2.74  -917.202743    0      14     
iter:   6  18:13:46  -3.29  -2.80  -917.191203    0      7      
iter:   7  18:14:30  -3.56  -3.05  -917.187719    0      6      
iter:   8  18:15:10  -3.70  -3.19  -917.186902    0      5      
iter:   9  18:15:49  -4.23  -3.37  -917.187172    0      6      
iter:  10  18:16:29  -4.40  -3.76  -917.186658    0      4      
iter:  11  18:17:07  -4.65  -3.92  -917.186638    0      5      
iter:  12  18:17:53  -4.69  -3.74  -917.187363    0      5      
iter:  13  18:18:37  -5.20  -4.39  -917.187341    0      2      
iter:  14  18:19:16  -5.70  -4.46  -917.187213    0      3      
iter:  15  18:19:55  -6.31  -4.45  -917.187674    0      3      
iter:  16  18:20:34  -6.26  -4.62  -917.186792    0      3      
iter:  17  18:21:13  -6.69  -4.68  -917.187250    0      3      
iter:  18  18:21:58  -6.67  -4.81  -917.187255    0      3      
iter:  19  18:22:36  -7.04  -5.18  -917.186840    0      1      
iter:  20  18:23:13  -7.61  -5.18  -917.186571    0      2      

Converged after 20 iterations.

Dipole moment: (2.193686, 3.799870, -78.259060) |e|*Ang

Energy contributions relative to reference atoms: (reference = -393819.233490)

Kinetic:       +1244.275963
Potential:     -1223.704100
External:        +0.000000
XC:            -1001.833799
Entropy (-ST):   -0.000000
Local:          +64.075365
--------------------------
Free energy:   -917.186571
Extrapolated:  -917.186571

Fermi level: 4.65748

 Band  Eigenvalues  Occupancy
    0    -17.39138    2.00000
    1    -17.26071    2.00000
    2    -17.25592    2.00000
    3    -17.07857    2.00000
    4    -16.73720    2.00000
    5    -16.73560    2.00000
    6    -16.70583    2.00000
    7    -16.70255    2.00000
    8    -16.70021    2.00000
    9    -16.69729    2.00000
   10    -16.66613    2.00000
   11    -16.66438    2.00000
   12    -16.47900    2.00000
   13    -16.47886    2.00000
   14    -16.36068    2.00000
   15    -16.35490    2.00000
   16    -16.35355    2.00000
   17    -16.35040    2.00000
   18    -16.34934    2.00000
   19    -16.17851    2.00000
   20    -16.17552    2.00000
   21    -16.16939    2.00000
   22    -16.16734    2.00000
   23    -16.13849    2.00000
   24    -15.94006    2.00000
   25    -15.93813    2.00000
   26    -15.81100    2.00000
   27    -15.80172    2.00000
   28    -15.57705    2.00000
   29    -15.57427    2.00000
   30    -15.49609    2.00000
   31    -15.46304    2.00000
   32    -15.46193    2.00000
   33    -15.46003    2.00000
   34    -15.45926    2.00000
   35    -15.44848    2.00000
   36    -15.44316    2.00000
   37    -15.43577    2.00000
   38    -15.42157    2.00000
   39    -15.41766    2.00000
   40    -15.41618    2.00000
   41    -15.33599    2.00000
   42    -15.33242    2.00000
   43    -15.29927    2.00000
   44    -15.29632    2.00000
   45    -15.29602    2.00000
   46    -15.29310    2.00000
   47    -15.23733    2.00000
   48    -15.23496    2.00000
   49    -15.13647    2.00000
   50    -15.13594    2.00000
   51    -15.10935    2.00000
   52    -15.05410    2.00000
   53    -15.05024    2.00000
   54    -15.01576    2.00000
   55    -15.01201    2.00000
   56    -15.00783    2.00000
   57    -15.00582    2.00000
   58    -15.00439    2.00000
   59    -15.00239    2.00000
   60    -14.97649    2.00000
   61    -14.88251    2.00000
   62    -14.87941    2.00000
   63    -14.85879    2.00000
   64    -14.85624    2.00000
   65    -14.75907    2.00000
   66    -14.75662    2.00000
   67    -14.75540    2.00000
   68    -14.75295    2.00000
   69    -14.73111    2.00000
   70    -14.65548    2.00000
   71    -14.65339    2.00000
   72     -7.20083    2.00000
   73     -6.87471    2.00000
   74     -6.87041    2.00000
   75     -6.50773    2.00000
   76     -6.43261    2.00000
   77     -6.43076    2.00000
   78     -6.17707    2.00000
   79     -6.17279    2.00000
   80     -6.17102    2.00000
   81     -6.16651    2.00000
   82     -5.89547    2.00000
   83     -5.89498    2.00000
   84     -5.26006    2.00000
   85     -5.10284    2.00000
   86     -5.09798    2.00000
   87     -4.80638    2.00000
   88     -4.80340    2.00000
   89     -4.79137    2.00000
   90     -4.78831    2.00000
   91     -4.78709    2.00000
   92     -4.78378    2.00000
   93     -4.34519    2.00000
   94     -4.34402    2.00000
   95     -4.21441    2.00000
   96     -4.20043    2.00000
   97     -4.09257    2.00000
   98     -4.08935    2.00000
   99     -3.99329    2.00000
  100     -3.89815    2.00000
  101     -3.85020    2.00000
  102     -3.84480    2.00000
  103     -3.80302    2.00000
  104     -3.80185    2.00000
  105     -3.79953    2.00000
  106     -3.79819    2.00000
  107     -3.78185    2.00000
  108     -3.78165    2.00000
  109     -3.75511    2.00000
  110     -3.75019    2.00000
  111     -3.68201    2.00000
  112     -3.68037    2.00000
  113     -3.64729    2.00000
  114     -3.64533    2.00000
  115     -3.64261    2.00000
  116     -3.64071    2.00000
  117     -3.62227    2.00000
  118     -3.50811    2.00000
  119     -3.50272    2.00000
  120     -2.62021    2.00000
  121     -2.61617    2.00000
  122     -2.52470    2.00000
  123     -2.52432    2.00000
  124     -2.49438    2.00000
  125     -2.39785    2.00000
  126     -2.35955    2.00000
  127     -2.28239    2.00000
  128     -2.27892    2.00000
  129     -2.27285    2.00000
  130     -2.26445    2.00000
  131     -2.26177    2.00000
  132     -2.26012    2.00000
  133     -2.25744    2.00000
  134     -2.20978    2.00000
  135     -2.20702    2.00000
  136     -2.14213    2.00000
  137     -1.97928    2.00000
  138     -1.97862    2.00000
  139     -1.96565    2.00000
  140     -1.94761    2.00000
  141     -1.94269    2.00000
  142     -1.91601    2.00000
  143     -1.91106    2.00000
  144     -1.90573    2.00000
  145     -1.88223    2.00000
  146     -1.87903    2.00000
  147     -1.87727    2.00000
  148     -1.87407    2.00000
  149     -1.84509    2.00000
  150     -1.84022    2.00000
  151     -1.63150    2.00000
  152     -1.62947    2.00000
  153     -1.58691    2.00000
  154     -1.58413    2.00000
  155     -1.57938    2.00000
  156     -1.57660    2.00000
  157     -1.48762    2.00000
  158     -1.47116    2.00000
  159     -1.46106    2.00000
  160     -1.39014    2.00000
  161     -1.38780    2.00000
  162     -1.36682    2.00000
  163     -1.36133    2.00000
  164     -1.33187    2.00000
  165     -1.30084    2.00000
  166     -1.29994    2.00000
  167     -1.29680    2.00000
  168     -1.19260    2.00000
  169     -1.19054    2.00000
  170     -1.18918    2.00000
  171     -1.18716    2.00000
  172     -1.15735    2.00000
  173     -1.13063    2.00000
  174     -1.12884    2.00000
  175     -1.12727    2.00000
  176     -1.12547    2.00000
  177     -1.09267    2.00000
  178     -0.96733    2.00000
  179     -0.96390    2.00000
  180     -0.90185    2.00000
  181     -0.89856    2.00000
  182     -0.88025    2.00000
  183     -0.87919    2.00000
  184     -0.84092    2.00000
  185     -0.83291    2.00000
  186     -0.51564    2.00000
  187     -0.51412    2.00000
  188     -0.47832    2.00000
  189     -0.46181    2.00000
  190     -0.45420    2.00000
  191     -0.42591    2.00000
  192     -0.42292    2.00000
  193     -0.41047    2.00000
  194     -0.40772    2.00000
  195     -0.40253    2.00000
  196     -0.39999    2.00000
  197     -0.25183    2.00000
  198     -0.25097    2.00000
  199     -0.12270    2.00000
  200     -0.06968    2.00000
  201     -0.05941    2.00000
  202      0.00902    2.00000
  203      0.01228    2.00000
  204      0.01964    2.00000
  205      0.02277    2.00000
  206      0.08867    2.00000
  207      0.09165    2.00000
  208      0.19400    2.00000
  209      0.21199    2.00000
  210      0.21908    2.00000
  211      0.22182    2.00000
  212      0.22322    2.00000
  213      0.22591    2.00000
  214      0.22866    2.00000
  215      0.25552    2.00000
  216      0.25662    2.00000
  217      0.26916    2.00000
  218      0.27744    2.00000
  219      0.32910    2.00000
  220      0.33576    2.00000
  221      0.46789    2.00000
  222      0.51602    2.00000
  223      0.54690    2.00000
  224      0.54835    2.00000
  225      0.55198    2.00000
  226      0.55301    2.00000
  227      0.55419    2.00000
  228      0.55539    2.00000
  229      0.57038    2.00000
  230      0.57253    2.00000
  231      0.57638    2.00000
  232      0.57853    2.00000
  233      0.58603    2.00000
  234      0.61339    2.00000
  235      0.61441    2.00000
  236      0.65998    2.00000
  237      0.66341    2.00000
  238      0.67993    2.00000
  239      0.68418    2.00000
  240      0.73034    2.00000
  241      0.73574    2.00000
  242      0.75325    2.00000
  243      0.75672    2.00000
  244      0.79787    2.00000
  245      0.83233    2.00000
  246      0.83472    2.00000
  247      0.84538    2.00000
  248      0.84796    2.00000
  249      0.85037    2.00000
  250      0.89483    2.00000
  251      0.89802    2.00000
  252      0.98909    2.00000
  253      0.99181    2.00000
  254      0.99883    2.00000
  255      1.00128    2.00000
  256      1.00751    2.00000
  257      1.01454    2.00000
  258      1.01612    2.00000
  259      1.04913    2.00000
  260      1.05216    2.00000
  261      1.15535    2.00000
  262      1.15731    2.00000
  263      1.15837    2.00000
  264      1.16315    2.00000
  265      1.18275    2.00000
  266      1.19447    2.00000
  267      1.19793    2.00000
  268      1.20003    2.00000
  269      1.22816    2.00000
  270      1.23035    2.00000
  271      1.30190    2.00000
  272      1.47756    2.00000
  273      1.47964    2.00000
  274      1.48606    2.00000
  275      1.48822    2.00000
  276      1.54546    2.00000
  277      1.69882    2.00000
  278      1.70090    2.00000
  279      1.70639    2.00000
  280      1.70771    2.00000
  281      1.70849    2.00000
  282      1.71561    2.00000
  283      1.74181    2.00000
  284      1.74422    2.00000
  285      1.88611    2.00000
  286      2.09437    2.00000
  287      2.09912    2.00000
  288      7.73897    0.00000
  289      8.47144    0.00000
  290      8.47406    0.00000
  291      9.71500    0.00000
  292      9.82130    0.00000
  293     10.04341    0.00000
  294     10.04788    0.00000
  295     10.07633    0.00000
  296     10.26286    0.00000
  297     10.26621    0.00000
  298     10.33861    0.00000
  299     10.37518    0.00000
  300     10.57565    0.00000
  301     10.57923    0.00000
  302     10.62857    0.00000
  303     10.63630    0.00000
  304     10.66132    0.00000
  305     10.66321    0.00000
  306     10.66725    0.00000
  307     10.66916    0.00000
  308     10.67744    0.00000
  309     10.95059    0.00000
  310     10.95427    0.00000
  311     10.95845    0.00000
  312     10.96227    0.00000
  313     11.15856    0.00000
  314     11.15973    0.00000
  315     11.16270    0.00000
  316     11.16607    0.00000
  317     11.20618    0.00000
  318     11.32033    0.00000
  319     11.32411    0.00000
  320     11.32883    0.00000
  321     11.33243    0.00000
  322     11.47887    0.00000
  323     11.48631    0.00000
  324     11.59954    0.00000
  325     11.60080    0.00000
  326     11.60244    0.00000
  327     11.60631    0.00000
  328     11.60761    0.00000
  329     11.62590    0.00000
  330     11.62632    0.00000
  331     11.68842    0.00000
  332     11.69604    0.00000
  333     11.72235    0.00000
  334     11.77560    0.00000
  335     11.77883    0.00000
  336     11.85664    0.00000
  337     11.86508    0.00000
  338     11.90763    0.00000
  339     11.91089    0.00000
  340     11.91511    0.00000
  341     11.91830    0.00000
  342     11.94301    0.00000
  343     11.94511    0.00000
  344     12.04376    0.00000
  345     12.05143    0.00000
  346     12.09234    0.00000
  347     12.09471    0.00000
  348     12.22502    0.00000
  349     12.23023    0.00000
  350     12.26677    0.00000
  351     12.27077    0.00000
  352     12.27519    0.00000
  353     12.27917    0.00000
  354     12.30360    0.00000
  355     12.53944    0.00000
  356     12.54171    0.00000
  357     12.54421    0.00000
  358     12.54653    0.00000
  359     12.60051    0.00000
  360     12.60924    0.00000
  361     12.63002    0.00000
  362     12.64216    0.00000
  363     12.68929    0.00000
  364     12.69051    0.00000
  365     12.71742    0.00000
  366     12.78811    0.00000
  367     12.86686    0.00000
  368     12.90721    0.00000
  369     12.90951    0.00000
  370     13.15141    0.00000
  371     13.15493    0.00000
  372     13.16315    0.00000
  373     13.16329    0.00000
  374     13.17971    0.00000
  375     13.28840    0.00000
  376     13.33427    0.00000
  377     13.33815    0.00000
  378     13.61123    0.00000
  379     13.61466    0.00000
  380     13.61706    0.00000
  381     13.62044    0.00000
  382     13.62928    0.00000
  383     13.63808    0.00000
  384     13.68187    0.00000
  385     13.68374    0.00000
  386     13.68572    0.00000
  387     13.68761    0.00000
  388     13.74308    0.00000
  389     13.75822    0.00000
  390     13.76227    0.00000
  391     13.87584    0.00000
  392     13.89849    0.00000
  393     13.90946    0.00000
  394     13.90981    0.00000
  395     13.94826    0.00000
  396     13.94909    0.00000
  397     13.96132    0.00000
  398     13.99653    0.00000
  399     14.00011    0.00000
  400     14.14440    0.00000
  401     14.16768    0.00000
  402     14.16957    0.00000
  403     14.19958    0.00000
  404     14.32935    0.00000
  405     14.33384    0.00000
  406     14.60674    0.00000
  407     14.60909    0.00000
  408     14.64667    0.00000
  409     14.64963    0.00000
  410     14.73233    0.00000
  411     14.78319    0.00000
  412     14.78645    0.00000
  413     14.78888    0.00000
  414     14.79210    0.00000
  415     14.86183    0.00000
  416     14.89147    0.00000
  417     14.89212    0.00000
  418     14.89408    0.00000
  419     14.89459    0.00000
  420     14.89716    0.00000
  421     14.89808    0.00000
  422     15.11816    0.00000
  423     15.13024    0.00000
  424     15.14055    0.00000
  425     15.14352    0.00000
  426     15.15600    0.00000
  427     15.15800    0.00000
  428     15.28998    0.00000
  429     15.33478    0.00000
  430     15.33693    0.00000
  431     15.34132    0.00000
  432     15.34340    0.00000
  433     15.37167    0.00000
  434     15.37288    0.00000
  435     15.38532    0.00000
  436     15.38650    0.00000
  437     15.49609    0.00000
  438     15.49931    0.00000
  439     15.53987    0.00000
  440     15.54851    0.00000
  441     15.82143    0.00000
  442     15.85460    0.00000
  443     15.86592    0.00000
  444     15.86830    0.00000
  445     16.15067    0.00000
  446     16.16405    0.00000
  447     16.34688    0.00000
  448     16.34897    0.00000
  449     16.35719    0.00000
  450     16.36023    0.00000
  451     16.45449    0.00000
  452     16.46559    0.00000
  453     16.60715    0.00000
  454     16.60908    0.00000
  455     16.65113    0.00000
  456     16.69428    0.00000
  457     16.69491    0.00000
  458     16.69866    0.00000
  459     16.92787    0.00000
  460     16.93372    0.00000
  461     16.93542    0.00000
  462     16.93900    0.00000
  463     17.33787    0.00000


Forces in eV/Ang:
  0 Be    0.00426   -0.01050   -0.00996
  1 Be    0.00423   -0.01052    0.00321
  2 Be   -0.01123   -0.00154    0.00136
  3 Be   -0.01127   -0.00151   -0.00812
  4 Be   -0.00014   -0.00025   -0.00434
  5 Be   -0.00014   -0.00024   -0.00232
  6 Al   -0.00677    0.00709   -0.00439
  7 Al    0.00964   -0.00217   -0.00403
  8 Al    0.00958   -0.00216   -0.00373
  9 Al   -0.00676    0.00711   -0.00337
 10 Si    0.06023    0.04118    0.02638
 11 Si   -0.06125   -0.04202    0.02559
 12 Si   -0.06509    0.00016    0.02565
 13 Si    0.06997   -0.00250    0.02638
 14 Si    0.01815   -0.05770    0.02639
 15 Si   -0.01667    0.05146    0.02647
 16 Si    0.00044    0.09327   -0.00757
 17 Si   -0.00082   -0.09417   -0.00789
 18 Si    0.05241   -0.06231   -0.00784
 19 Si   -0.05726    0.06544   -0.00760
 20 Si   -0.07420   -0.02748   -0.00763
 21 Si    0.06819    0.02575   -0.00755
 22 O    -0.09714   -0.06396   -0.00690
 23 O     0.08681    0.05641   -0.00692
 24 O     0.14086   -0.02381   -0.00692
 25 O    -0.14884    0.01972   -0.00690
 26 O    -0.05845    0.12010   -0.00689
 27 O     0.05704   -0.12421   -0.00688
 28 O    -0.00683   -0.12399   -0.00106
 29 O     0.00525    0.11137   -0.00129
 30 O    -0.09888    0.11530   -0.00099
 31 O     0.09925   -0.12437   -0.00116
 32 O     0.14116    0.01306   -0.00118
 33 O    -0.14387   -0.01630   -0.00065
 34 O    -0.04071    0.04531    0.06157
 35 O     0.03219   -0.03841   -0.07786
 36 O    -0.02433   -0.02390    0.04547
 37 O     0.03001    0.01583   -0.05747
 38 O     0.06659   -0.02793    0.04447
 39 O    -0.06782    0.02854   -0.05909
 40 O     0.03724   -0.03914    0.06275
 41 O    -0.03532    0.04532   -0.07539
 42 O     0.02751    0.02087    0.04464
 43 O    -0.02620   -0.01898   -0.06036
 44 O    -0.07081    0.02404    0.04471
 45 O     0.06333   -0.03252   -0.05808
 46 O     0.05700   -0.00848   -0.07816
 47 O    -0.05127    0.00651    0.09269
 48 O    -0.00371   -0.03241   -0.06288
 49 O    -0.00141    0.03616    0.07504
 50 O    -0.05993    0.03934   -0.06090
 51 O     0.06106   -0.04533    0.07473
 52 O    -0.04954    0.00893   -0.08021
 53 O     0.05808   -0.00664    0.09190
 54 O    -0.00067    0.03406   -0.06072
 55 O    -0.00261   -0.03519    0.07551
 56 O     0.05864   -0.04511   -0.06153
 57 O    -0.06233    0.03980    0.07455
 58 Be    0.00437   -0.01050   -0.00716
 59 Be    0.00418   -0.01046    0.02257
 60 Be   -0.01121   -0.00160    0.00417
 61 Be   -0.01128   -0.00142    0.01128
 62 Be   -0.00014   -0.00023   -0.00136
 63 Be   -0.00013   -0.00022    0.01722
 64 Al   -0.00678    0.00709   -0.00312
 65 Al    0.00957   -0.00211    0.02000
 66 Al    0.00960   -0.00217   -0.00245
 67 Al   -0.00674    0.00696    0.02067
 68 Si    0.08040    0.04717   -0.00658
 69 Si   -0.08091   -0.04786   -0.00719
 70 Si   -0.08009    0.01426   -0.00714
 71 Si    0.08524   -0.01671   -0.00671
 72 Si    0.01336   -0.07781   -0.00674
 73 Si   -0.01172    0.07180   -0.00654
 74 Si    0.00125    0.09071   -0.00561
 75 Si   -0.00166   -0.09152   -0.00653
 76 Si    0.04973   -0.06169   -0.00647
 77 Si   -0.05434    0.06497   -0.00583
 78 Si   -0.07219   -0.02520   -0.00585
 79 Si    0.06622    0.02383   -0.00556
 80 O    -0.10446   -0.06865   -0.00294
 81 O     0.09431    0.06096   -0.00360
 82 O     0.14846   -0.02769   -0.00308
 83 O    -0.15672    0.02331   -0.00329
 84 O    -0.05928    0.12869   -0.00334
 85 O     0.05789   -0.13247   -0.00232
 86 O    -0.00678   -0.12276   -0.00411
 87 O     0.00510    0.11019   -0.00538
 88 O    -0.09750    0.11458   -0.00484
 89 O     0.09808   -0.12398   -0.00471
 90 O     0.14032    0.01229   -0.00484
 91 O    -0.14264   -0.01533   -0.00349
 92 O    -0.03584    0.04837    0.09381
 93 O     0.01708   -0.04424   -0.09666
 94 O    -0.02993   -0.02158    0.07674
 95 O     0.04410    0.00598   -0.07693
 96 O     0.06714   -0.03361    0.07631
 97 O    -0.06592    0.04554   -0.07879
 98 O     0.03241   -0.04292    0.09397
 99 O    -0.01888    0.05220   -0.09479
100 O     0.03249    0.01837    0.07686
101 O    -0.03971   -0.00907   -0.07936
102 O    -0.07136    0.02984    0.07640
103 O     0.06177   -0.04825   -0.07770
104 O     0.05633   -0.00615   -0.07392
105 O    -0.05328   -0.00013    0.10422
106 O    -0.00177   -0.03255   -0.05897
107 O    -0.00628    0.04034    0.08780
108 O    -0.06129    0.03741   -0.05633
109 O     0.06763   -0.04357    0.08689
110 O    -0.04880    0.00714   -0.07638
111 O     0.05939   -0.00010    0.10449
112 O    -0.00296    0.03440   -0.05558
113 O     0.00207   -0.04010    0.08701
114 O     0.06013   -0.04325   -0.05771
115 O    -0.06859    0.03801    0.08699

System changes: positions 

Initializing position-dependent things.

Density initialized from wave functions
                                              
                                              
                                              
                                              
                    O                         
             O                                
                 AlO     O                    
           Be        OBe       O              
              OSi       O  Al O               
           O           OiBeO  Si              
              Si O          O                 
              O  O   Si       O  O            
                 Al OO O      Si              
           BeO        Be   AO                 
            Si     O  Si O                    
                    O    BeSi  O              
             OO   Si    O                     
                   OO Si O      Si            
           Be    Al   Be       O              
               Si    O  O  Al O               
           O  O        Oi  O                  
                 O       Be O Si              
              Si O   Si          O            
              O  Al OO        Si              
           BeO        BO                      
             O     O  Si O AO                 
            Si           BeSi  O              
                  Si    O                     
              O     O           Si            
                      Si       O              
                                              
                                              
                                              
                                              

Positions:
   0 Be     4.604250   -0.000638    2.296746    ( 0.0000,  0.0000,  0.0000)
   1 Be     4.604250   -0.000638    6.891182    ( 0.0000,  0.0000,  0.0000)
   2 Be    -2.302677    3.987080    2.297109    ( 0.0000,  0.0000,  0.0000)
   3 Be    -2.302679    3.987081    6.890820    ( 0.0000,  0.0000,  0.0000)
   4 Be     2.302010    3.987199    2.296926    ( 0.0000,  0.0000,  0.0000)
   5 Be     2.302011    3.987200    6.891005    ( 0.0000,  0.0000,  0.0000)
   6 Al    -0.000105    5.316556    2.296911    ( 0.0000,  0.0000,  0.0000)
   7 Al     4.604329    2.658193    6.890942    ( 0.0000,  0.0000,  0.0000)
   8 Al     4.604327    2.658193    2.296977    ( 0.0000,  0.0000,  0.0000)
   9 Al    -0.000105    5.316556    6.891009    ( 0.0000,  0.0000,  0.0000)
  10 Si     3.044396    0.923545   -0.001147    ( 0.0000,  0.0000,  0.0000)
  11 Si     1.559478    7.050752   -0.001169    ( 0.0000,  0.0000,  0.0000)
  12 Si     6.887026    2.174081   -0.001168    ( 0.0000,  0.0000,  0.0000)
  13 Si    -2.282965    5.800174   -0.001147    ( 0.0000,  0.0000,  0.0000)
  14 Si     3.882368    4.876306   -0.001147    ( 0.0000,  0.0000,  0.0000)
  15 Si     0.721659    3.097919   -0.001145    ( 0.0000,  0.0000,  0.0000)
  16 Si    -0.722221    3.097855    4.593873    ( 0.0000,  0.0000,  0.0000)
  17 Si     5.326223    4.876378    4.593864    ( 0.0000,  0.0000,  0.0000)
  18 Si    -1.561159    7.051483    4.593865    ( 0.0000,  0.0000,  0.0000)
  19 Si     6.165025    0.922879    4.593872    ( 0.0000,  0.0000,  0.0000)
  20 Si     2.282164    5.800742    4.593871    ( 0.0000,  0.0000,  0.0000)
  21 Si     2.321708    2.173579    4.593874    ( 0.0000,  0.0000,  0.0000)
  22 O      1.752673    1.869544   -0.000150    ( 0.0000,  0.0000,  0.0000)
  23 O      2.850901    6.104234   -0.000151    ( 0.0000,  0.0000,  0.0000)
  24 O      6.713670    0.582215   -0.000150    ( 0.0000,  0.0000,  0.0000)
  25 O     -2.110070    7.392014   -0.000150    ( 0.0000,  0.0000,  0.0000)
  26 O      5.346729    5.522419   -0.000149    ( 0.0000,  0.0000,  0.0000)
  27 O     -0.742671    2.451659   -0.000149    ( 0.0000,  0.0000,  0.0000)
  28 O      0.742728    2.452384    4.593893    ( 0.0000,  0.0000,  0.0000)
  29 O      3.860975    5.521321    4.593885    ( 0.0000,  0.0000,  0.0000)
  30 O     -2.852882    6.105512    4.593895    ( 0.0000,  0.0000,  0.0000)
  31 O      7.456966    1.868436    4.593890    ( 0.0000,  0.0000,  0.0000)
  32 O      2.109461    7.391727    4.593889    ( 0.0000,  0.0000,  0.0000)
  33 O      2.494270    0.582548    4.593905    ( 0.0000,  0.0000,  0.0000)
  34 O      3.924781    1.159704    1.348011    ( 0.0000,  0.0000,  0.0000)
  35 O      0.678848    6.815148    7.839340    ( 0.0000,  0.0000,  0.0000)
  36 O      6.240859    2.821072    1.347593    ( 0.0000,  0.0000,  0.0000)
  37 O     -1.636599    5.152916    7.839889    ( 0.0000,  0.0000,  0.0000)
  38 O      3.646303    3.993144    1.347600    ( 0.0000,  0.0000,  0.0000)
  39 O      0.957592    3.981134    7.839904    ( 0.0000,  0.0000,  0.0000)
  40 O      0.679022    6.815041    1.348088    ( 0.0000,  0.0000,  0.0000)
  41 O      3.924964    1.159638    7.839483    ( 0.0000,  0.0000,  0.0000)
  42 O     -1.636627    5.153118    1.347626    ( 0.0000,  0.0000,  0.0000)
  43 O      6.240866    2.821280    7.839842    ( 0.0000,  0.0000,  0.0000)
  44 O      0.957435    3.981016    1.347576    ( 0.0000,  0.0000,  0.0000)
  45 O      3.646138    3.993023    7.839893    ( 0.0000,  0.0000,  0.0000)
  46 O     -0.958182    3.978923    3.245348    ( 0.0000,  0.0000,  0.0000)
  47 O      5.562474    3.995432    5.943047    ( 0.0000,  0.0000,  0.0000)
  48 O     -0.677164    6.815345    3.245738    ( 0.0000,  0.0000,  0.0000)
  49 O      5.280945    1.159271    5.942596    ( 0.0000,  0.0000,  0.0000)
  50 O      1.634961    5.154207    3.245754    ( 0.0000,  0.0000,  0.0000)
  51 O      2.969083    2.819724    5.942551    ( 0.0000,  0.0000,  0.0000)
  52 O      5.562632    3.995475    3.245232    ( 0.0000,  0.0000,  0.0000)
  53 O     -0.958062    3.978943    5.942990    ( 0.0000,  0.0000,  0.0000)
  54 O      5.280894    1.159153    3.245752    ( 0.0000,  0.0000,  0.0000)
  55 O     -0.677208    6.815184    5.942544    ( 0.0000,  0.0000,  0.0000)
  56 O      2.968994    2.819823    3.245772    ( 0.0000,  0.0000,  0.0000)
  57 O      1.634877    5.154311    5.942576    ( 0.0000,  0.0000,  0.0000)
  58 Be     4.604254   -0.000638   11.484858    ( 0.0000,  0.0000,  0.0000)
  59 Be     4.604249   -0.000637   16.079847    ( 0.0000,  0.0000,  0.0000)
  60 Be    -2.302677    3.987079   11.485221    ( 0.0000,  0.0000,  0.0000)
  61 Be    -2.302680    3.987084   16.079485    ( 0.0000,  0.0000,  0.0000)
  62 Be     2.302011    3.987200   11.485043    ( 0.0000,  0.0000,  0.0000)
  63 Be     2.302011    3.987201   16.079675    ( 0.0000,  0.0000,  0.0000)
  64 Al    -0.000105    5.316556   11.484966    ( 0.0000,  0.0000,  0.0000)
  65 Al     4.604327    2.658195   16.079715    ( 0.0000,  0.0000,  0.0000)
  66 Al     4.604328    2.658193   11.485033    ( 0.0000,  0.0000,  0.0000)
  67 Al    -0.000104    5.316552   16.079781    ( 0.0000,  0.0000,  0.0000)
  68 Si     3.043937    0.923449    9.187903    ( 0.0000,  0.0000,  0.0000)
  69 Si     1.559951    7.050851    9.187884    ( 0.0000,  0.0000,  0.0000)
  70 Si     6.887346    2.173721    9.187885    ( 0.0000,  0.0000,  0.0000)
  71 Si    -2.283278    5.800531    9.187899    ( 0.0000,  0.0000,  0.0000)
  72 Si     3.882517    4.876762    9.187898    ( 0.0000,  0.0000,  0.0000)
  73 Si     0.721515    3.097470    9.187904    ( 0.0000,  0.0000,  0.0000)
  74 Si    -0.722200    3.097800   13.781937    ( 0.0000,  0.0000,  0.0000)
  75 Si     5.326202    4.876435   13.781909    ( 0.0000,  0.0000,  0.0000)
  76 Si    -1.561217    7.051494   13.781911    ( 0.0000,  0.0000,  0.0000)
  77 Si     6.165091    0.922872   13.781931    ( 0.0000,  0.0000,  0.0000)
  78 Si     2.282206    5.800795   13.781931    ( 0.0000,  0.0000,  0.0000)
  79 Si     2.321666    2.173536   13.781938    ( 0.0000,  0.0000,  0.0000)
  80 O      1.752441    1.869378    9.187791    ( 0.0000,  0.0000,  0.0000)
  81 O      2.851144    6.104402    9.187769    ( 0.0000,  0.0000,  0.0000)
  82 O      6.713935    0.582098    9.187784    ( 0.0000,  0.0000,  0.0000)
  83 O     -2.110340    7.392131    9.187780    ( 0.0000,  0.0000,  0.0000)
  84 O      5.346694    5.522712    9.187779    ( 0.0000,  0.0000,  0.0000)
  85 O     -0.742631    2.451387    9.187809    ( 0.0000,  0.0000,  0.0000)
  86 O      0.742728    2.452423   13.781722    ( 0.0000,  0.0000,  0.0000)
  87 O      3.860974    5.521300   13.781679    ( 0.0000,  0.0000,  0.0000)
  88 O     -2.852853    6.105501   13.781693    ( 0.0000,  0.0000,  0.0000)
  89 O      7.456947    1.868443   13.781704    ( 0.0000,  0.0000,  0.0000)
  90 O      2.109448    7.391716   13.781703    ( 0.0000,  0.0000,  0.0000)
  91 O      2.494308    0.582579   13.781741    ( 0.0000,  0.0000,  0.0000)
  92 O      3.924849    1.159855   10.537063    ( 0.0000,  0.0000,  0.0000)
  93 O      0.679511    6.815330   17.028861    ( 0.0000,  0.0000,  0.0000)
  94 O      6.240666    2.821027   10.536601    ( 0.0000,  0.0000,  0.0000)
  95 O     -1.637039    5.153406   17.029425    ( 0.0000,  0.0000,  0.0000)
  96 O      3.646406    3.993018   10.536638    ( 0.0000,  0.0000,  0.0000)
  97 O      0.957390    3.980505   17.029432    ( 0.0000,  0.0000,  0.0000)
  98 O      0.678965    6.814850   10.537097    ( 0.0000,  0.0000,  0.0000)
  99 O      3.924342    1.159499   17.029019    ( 0.0000,  0.0000,  0.0000)
 100 O     -1.636473    5.153140   10.536672    ( 0.0000,  0.0000,  0.0000)
 101 O      6.241331    2.820790   17.029355    ( 0.0000,  0.0000,  0.0000)
 102 O      0.957328    3.981153   10.536613    ( 0.0000,  0.0000,  0.0000)
 103 O      3.646340    3.993688   17.029427    ( 0.0000,  0.0000,  0.0000)
 104 O     -0.958255    3.978995   12.433600    ( 0.0000,  0.0000,  0.0000)
 105 O      5.562310    3.995217   15.131372    ( 0.0000,  0.0000,  0.0000)
 106 O     -0.677077    6.815403   12.433948    ( 0.0000,  0.0000,  0.0000)
 107 O      5.280833    1.159469   15.130960    ( 0.0000,  0.0000,  0.0000)
 108 O      1.634946    5.154099   12.434014    ( 0.0000,  0.0000,  0.0000)
 109 O      2.969335    2.819717   15.130904    ( 0.0000,  0.0000,  0.0000)
 110 O      5.562723    3.995428   12.433440    ( 0.0000,  0.0000,  0.0000)
 111 O     -0.957942    3.979156   15.131353    ( 0.0000,  0.0000,  0.0000)
 112 O      5.280794    1.159116   12.434026    ( 0.0000,  0.0000,  0.0000)
 113 O     -0.677106    6.814938   15.130869    ( 0.0000,  0.0000,  0.0000)
 114 O      2.969015    2.819925   12.434014    ( 0.0000,  0.0000,  0.0000)
 115 O      1.634643    5.154322   15.130932    ( 0.0000,  0.0000,  0.0000)

Unit cell:
           periodic     x           y           z      points  spacing
  1. axis:    yes    9.210000    0.000000    0.000000    40     0.1994
  2. axis:    yes   -4.605000    7.976094    0.000000    40     0.1994
  3. axis:    yes    0.000000    0.000000   18.380000    92     0.1998

  Lengths:   9.210000   9.210000  18.380000
  Angles:   90.000000  90.000000 120.000000

Effective grid spacing dv^(1/3) = 0.2093

                     log10-error:    total        iterations:
           time      wfs    density  energy       fermi  poisson
iter:   1  18:24:26  -0.44   +inf  -917.737381    0      17     
iter:   2  18:25:07  -0.92  -2.00  -917.811857    0      6      
[...]
  105     -3.78388    2.00000
  106     -3.78254    2.00000
  107     -3.76081    2.00000
  108     -3.75999    2.00000
  109     -3.72348    2.00000
  110     -3.72173    2.00000
  111     -3.68700    2.00000
  112     -3.68664    2.00000
  113     -3.65926    2.00000
  114     -3.65836    2.00000
  115     -3.65451    2.00000
  116     -3.65366    2.00000
  117     -3.57861    2.00000
  118     -3.52808    2.00000
  119     -3.52584    2.00000
  120     -2.64195    2.00000
  121     -2.63918    2.00000
  122     -2.52782    2.00000
  123     -2.52725    2.00000
  124     -2.50232    2.00000
  125     -2.41705    2.00000
  126     -2.38198    2.00000
  127     -2.30123    2.00000
  128     -2.29932    2.00000
  129     -2.28330    2.00000
  130     -2.28177    2.00000
  131     -2.28020    2.00000
  132     -2.27865    2.00000
  133     -2.26194    2.00000
  134     -2.21648    2.00000
  135     -2.21534    2.00000
  136     -2.16446    2.00000
  137     -1.97632    2.00000
  138     -1.97557    2.00000
  139     -1.96667    2.00000
  140     -1.96417    2.00000
  141     -1.95919    2.00000
  142     -1.91943    2.00000
  143     -1.90413    2.00000
  144     -1.90101    2.00000
  145     -1.87724    2.00000
  146     -1.87574    2.00000
  147     -1.87263    2.00000
  148     -1.87114    2.00000
  149     -1.84614    2.00000
  150     -1.84364    2.00000
  151     -1.64629    2.00000
  152     -1.64517    2.00000
  153     -1.58281    2.00000
  154     -1.58168    2.00000
  155     -1.57763    2.00000
  156     -1.57648    2.00000
  157     -1.49241    2.00000
  158     -1.46640    2.00000
  159     -1.45797    2.00000
  160     -1.39993    2.00000
  161     -1.39867    2.00000
  162     -1.37679    2.00000
  163     -1.37265    2.00000
  164     -1.33958    2.00000
  165     -1.32265    2.00000
  166     -1.31165    2.00000
  167     -1.30834    2.00000
  168     -1.21155    2.00000
  169     -1.21057    2.00000
  170     -1.20801    2.00000
  171     -1.20710    2.00000
  172     -1.16509    2.00000
  173     -1.14181    2.00000
  174     -1.14126    2.00000
  175     -1.13964    2.00000
  176     -1.13909    2.00000
  177     -1.07062    2.00000
  178     -0.94285    2.00000
  179     -0.94154    2.00000
  180     -0.91510    2.00000
  181     -0.91321    2.00000
  182     -0.89010    2.00000
  183     -0.88770    2.00000
  184     -0.83075    2.00000
  185     -0.81001    2.00000
  186     -0.54003    2.00000
  187     -0.53942    2.00000
  188     -0.48756    2.00000
  189     -0.46516    2.00000
  190     -0.46031    2.00000
  191     -0.43134    2.00000
  192     -0.42982    2.00000
  193     -0.41377    2.00000
  194     -0.41255    2.00000
  195     -0.40849    2.00000
  196     -0.40729    2.00000
  197     -0.25420    2.00000
  198     -0.25376    2.00000
  199     -0.13463    2.00000
  200     -0.06270    2.00000
  201     -0.05196    2.00000
  202      0.01083    2.00000
  203      0.01244    2.00000
  204      0.02197    2.00000
  205      0.02343    2.00000
  206      0.07615    2.00000
  207      0.08246    2.00000
  208      0.18648    2.00000
  209      0.20605    2.00000
  210      0.20745    2.00000
  211      0.21358    2.00000
  212      0.21498    2.00000
  213      0.22722    2.00000
  214      0.23722    2.00000
  215      0.25340    2.00000
  216      0.25383    2.00000
  217      0.25546    2.00000
  218      0.26644    2.00000
  219      0.31997    2.00000
  220      0.32760    2.00000
  221      0.44597    2.00000
  222      0.52456    2.00000
  223      0.54205    2.00000
  224      0.54423    2.00000
  225      0.55853    2.00000
  226      0.55918    2.00000
  227      0.55997    2.00000
  228      0.56087    2.00000
  229      0.56243    2.00000
  230      0.56352    2.00000
  231      0.56837    2.00000
  232      0.56950    2.00000
  233      0.60163    2.00000
  234      0.62305    2.00000
  235      0.62357    2.00000
  236      0.64868    2.00000
  237      0.65057    2.00000
  238      0.70079    2.00000
  239      0.70255    2.00000
  240      0.71597    2.00000
  241      0.72097    2.00000
  242      0.74224    2.00000
  243      0.74384    2.00000
  244      0.81479    2.00000
  245      0.82712    2.00000
  246      0.82853    2.00000
  247      0.84187    2.00000
  248      0.84330    2.00000
  249      0.85566    2.00000
  250      0.91697    2.00000
  251      0.91958    2.00000
  252      0.99626    2.00000
  253      1.00284    2.00000
  254      1.00930    2.00000
  255      1.01048    2.00000
  256      1.01632    2.00000
  257      1.01727    2.00000
  258      1.03932    2.00000
  259      1.06161    2.00000
  260      1.06280    2.00000
  261      1.15488    2.00000
  262      1.16247    2.00000
  263      1.17307    2.00000
  264      1.17348    2.00000
  265      1.17967    2.00000
  266      1.18102    2.00000
  267      1.18199    2.00000
  268      1.19018    2.00000
  269      1.21364    2.00000
  270      1.21524    2.00000
  271      1.27698    2.00000
  272      1.47125    2.00000
  273      1.47244    2.00000
  274      1.47827    2.00000
  275      1.47954    2.00000
  276      1.54670    2.00000
  277      1.68601    2.00000
  278      1.68720    2.00000
  279      1.69189    2.00000
  280      1.69307    2.00000
  281      1.69730    2.00000
  282      1.70461    2.00000
  283      1.73217    2.00000
  284      1.73345    2.00000
  285      1.87122    2.00000
  286      2.07932    2.00000
  287      2.08257    2.00000
  288      7.73616    0.00000
  289      8.47311    0.00000
  290      8.47516    0.00000
  291      9.67601    0.00000
  292      9.80695    0.00000
  293      9.99791    0.00000
  294      9.99972    0.00000
  295     10.11114    0.00000
  296     10.27228    0.00000
  297     10.27820    0.00000
  298     10.28134    0.00000
  299     10.38335    0.00000
  300     10.56449    0.00000
  301     10.56583    0.00000
  302     10.57917    0.00000
  303     10.58166    0.00000
  304     10.63193    0.00000
  305     10.67230    0.00000
  306     10.67422    0.00000
  307     10.67791    0.00000
  308     10.67985    0.00000
  309     10.89259    0.00000
  310     10.89382    0.00000
  311     10.89429    0.00000
  312     10.89552    0.00000
  313     11.11760    0.00000
  314     11.11819    0.00000
  315     11.11844    0.00000
  316     11.12015    0.00000
  317     11.22183    0.00000
  318     11.30412    0.00000
  319     11.31147    0.00000
  320     11.33223    0.00000
  321     11.33465    0.00000
  322     11.44699    0.00000
  323     11.45281    0.00000
  324     11.57873    0.00000
  325     11.57968    0.00000
  326     11.58813    0.00000
  327     11.58909    0.00000
  328     11.59455    0.00000
  329     11.65640    0.00000
  330     11.65962    0.00000
  331     11.68658    0.00000
  332     11.70235    0.00000
  333     11.70323    0.00000
  334     11.76140    0.00000
  335     11.76505    0.00000
  336     11.86739    0.00000
  337     11.87871    0.00000
  338     11.87950    0.00000
  339     11.88048    0.00000
  340     11.88548    0.00000
  341     11.88614    0.00000
  342     11.94078    0.00000
  343     11.94269    0.00000
  344     11.99887    0.00000
  345     11.99925    0.00000
  346     12.06772    0.00000
  347     12.06946    0.00000
  348     12.17657    0.00000
  349     12.18828    0.00000
  350     12.24060    0.00000
  351     12.25718    0.00000
  352     12.25939    0.00000
  353     12.26960    0.00000
  354     12.27180    0.00000
  355     12.54217    0.00000
  356     12.54342    0.00000
  357     12.54801    0.00000
  358     12.54930    0.00000
  359     12.57261    0.00000
  360     12.59800    0.00000
  361     12.64113    0.00000
  362     12.65587    0.00000
  363     12.66826    0.00000
  364     12.66903    0.00000
  365     12.67279    0.00000
  366     12.76698    0.00000
  367     12.90076    0.00000
  368     12.90978    0.00000
  369     12.91153    0.00000
  370     13.13829    0.00000
  371     13.14371    0.00000
  372     13.14835    0.00000
  373     13.15883    0.00000
  374     13.19786    0.00000
  375     13.28541    0.00000
  376     13.34868    0.00000
  377     13.35160    0.00000
  378     13.57611    0.00000
  379     13.57899    0.00000
  380     13.58196    0.00000
  381     13.59134    0.00000
  382     13.59407    0.00000
  383     13.60113    0.00000
  384     13.68217    0.00000
  385     13.68467    0.00000
  386     13.68864    0.00000
  387     13.69116    0.00000
  388     13.70520    0.00000
  389     13.75504    0.00000
  390     13.75653    0.00000
  391     13.88000    0.00000
  392     13.90272    0.00000
  393     13.90307    0.00000
  394     13.92340    0.00000
  395     13.92782    0.00000
  396     13.92837    0.00000
  397     13.98965    0.00000
  398     14.02654    0.00000
  399     14.03045    0.00000
  400     14.15080    0.00000
  401     14.16029    0.00000
  402     14.16414    0.00000
  403     14.21891    0.00000
  404     14.33749    0.00000
  405     14.33998    0.00000
  406     14.59324    0.00000
  407     14.60269    0.00000
  408     14.64772    0.00000
  409     14.64863    0.00000
  410     14.76034    0.00000
  411     14.76048    0.00000
  412     14.76323    0.00000
  413     14.76339    0.00000
  414     14.79055    0.00000
  415     14.84032    0.00000
  416     14.86214    0.00000
  417     14.86254    0.00000
  418     14.86367    0.00000
  419     14.86483    0.00000
  420     14.87308    0.00000
  421     14.87413    0.00000
  422     15.10395    0.00000
  423     15.11506    0.00000
  424     15.11583    0.00000
  425     15.12301    0.00000
  426     15.12357    0.00000
  427     15.12836    0.00000
  428     15.28511    0.00000
  429     15.32222    0.00000
  430     15.32377    0.00000
  431     15.32756    0.00000
  432     15.32905    0.00000
  433     15.35581    0.00000
  434     15.35704    0.00000
  435     15.37123    0.00000
  436     15.37249    0.00000
  437     15.50064    0.00000
  438     15.50259    0.00000
  439     15.52488    0.00000
  440     15.53331    0.00000
  441     15.74361    0.00000
  442     15.82953    0.00000
  443     15.84469    0.00000
  444     15.84905    0.00000
  445     16.13907    0.00000
  446     16.15166    0.00000
  447     16.15930    0.00000
  448     16.30978    0.00000
  449     16.32187    0.00000
  450     16.32465    0.00000
  451     16.32768    0.00000
  452     16.35793    0.00000
  453     16.44858    0.00000
  454     16.45694    0.00000
  455     16.61714    0.00000
  456     16.61951    0.00000
  457     16.67638    0.00000
  458     16.69376    0.00000
  459     16.70832    0.00000
  460     16.74393    0.00000
  461     16.94565    0.00000
  462     16.95523    0.00000
  463     16.95838    0.00000


Forces in eV/Ang:
  0 Be    0.00010    0.00121   -0.00582
  1 Be   -0.00011    0.00117    0.00302
  2 Be    0.00105    0.00053   -0.00340
  3 Be    0.00096    0.00074    0.00065
  4 Be   -0.00123   -0.00211   -0.00450
  5 Be   -0.00119   -0.00211    0.00173
  6 Al   -0.01123    0.00289   -0.00456
  7 Al    0.00816   -0.00823    0.00267
  8 Al    0.00819   -0.00834   -0.00561
  9 Al   -0.01140    0.00283    0.00160
 10 Si   -0.07009   -0.00485    0.01361
 11 Si    0.07136    0.00233    0.01317
 12 Si    0.03057   -0.06628    0.01323
 13 Si   -0.03028    0.06479    0.01397
 14 Si    0.03592    0.05667    0.01330
 15 Si   -0.03442   -0.05932    0.01304
 16 Si    0.02894   -0.05937   -0.00191
 17 Si   -0.03193    0.05915   -0.00208
 18 Si   -0.06877   -0.00742   -0.00192
 19 Si    0.06720    0.00689   -0.00163
 20 Si    0.02823    0.05607   -0.00207
 21 Si   -0.03152   -0.05616   -0.00214
 22 O    -0.04466   -0.00107   -0.00560
 23 O     0.04887    0.00527   -0.00562
 24 O     0.06771   -0.01568   -0.00551
 25 O    -0.06649    0.01403   -0.00553
 26 O    -0.02761    0.05981   -0.00553
 27 O     0.02346   -0.04976   -0.00544
 28 O     0.02253   -0.03795   -0.00016
 29 O    -0.02069    0.04457   -0.00063
 30 O    -0.04746    0.05024    0.00002
 31 O     0.04480   -0.04973    0.00014
 32 O     0.06461    0.00563   -0.00026
 33 O    -0.05393   -0.00467    0.00029
 34 O    -0.04070   -0.00918   -0.02639
 35 O     0.03957    0.00390    0.02436
 36 O     0.01847   -0.02761   -0.03913
 37 O    -0.01484    0.02341    0.03830
 38 O     0.01588    0.01657   -0.03862
 39 O    -0.01415   -0.01787    0.03399
 40 O     0.04148    0.00762   -0.02738
 41 O    -0.03815   -0.00600    0.02449
 42 O    -0.01805    0.02470   -0.03981
 43 O     0.01549   -0.02664    0.03658
 44 O    -0.01376   -0.02054   -0.03808
 45 O     0.01622    0.01389    0.03477
 46 O     0.01305   -0.03741    0.02253
 47 O    -0.01406    0.04187   -0.02233
 48 O    -0.03146    0.00118    0.03463
 49 O     0.03263   -0.00388   -0.03518
 50 O     0.00474    0.02086    0.03331
 51 O    -0.01236   -0.02344   -0.03338
 52 O    -0.01523    0.03748    0.02258
 53 O     0.01244   -0.04159   -0.02150
 54 O     0.02837   -0.00218    0.03619
 55 O    -0.03520    0.00304   -0.03413
 56 O    -0.00929   -0.02096    0.03252
 57 O     0.00801    0.02346   -0.03403
 58 Be    0.00027    0.00117    0.00183
 59 Be   -0.00014    0.00101    0.00959
 60 Be    0.00101    0.00039    0.00411
 61 Be    0.00081    0.00083    0.00739
 62 Be   -0.00123   -0.00203    0.00299
 63 Be   -0.00112   -0.00203    0.00841
 64 Al   -0.01128    0.00294    0.00406
 65 Al    0.00824   -0.00809    0.01051
 66 Al    0.00828   -0.00849    0.00298
 67 Al   -0.01144    0.00289    0.00946
 68 Si   -0.06739   -0.00483    0.00042
 69 Si    0.06877    0.00246   -0.00002
 70 Si    0.02901   -0.06429    0.00026
 71 Si   -0.02876    0.06290    0.00103
 72 Si    0.03480    0.05468   -0.00001
 73 Si   -0.03337   -0.05755   -0.00025
 74 Si    0.02900   -0.05858    0.00297
 75 Si   -0.03145    0.05848    0.00227
 76 Si   -0.06821   -0.00796    0.00280
 77 Si    0.06709    0.00752    0.00399
 78 Si    0.02793    0.05592    0.00253
 79 Si   -0.03102   -0.05628    0.00199
 80 O    -0.04464    0.00053   -0.00014
 81 O     0.04930    0.00485   -0.00096
 82 O     0.06692   -0.01646    0.00004
 83 O    -0.06474    0.01400    0.00033
 84 O    -0.02714    0.05837   -0.00020
 85 O     0.02260   -0.04893    0.00036
 86 O     0.02343   -0.03712    0.00095
 87 O    -0.02096    0.04341   -0.00000
 88 O    -0.04757    0.04957    0.00117
 89 O     0.04408   -0.04841    0.00160
 90 O     0.06320    0.00524    0.00101
 91 O    -0.05293   -0.00455    0.00166
 92 O    -0.04272   -0.01125   -0.01895
 93 O     0.03221    0.00183    0.01609
 94 O     0.02107   -0.02890   -0.03228
 95 O    -0.00982    0.01904    0.02957
 96 O     0.01601    0.01959   -0.03249
 97 O    -0.01206   -0.01165    0.02524
 98 O     0.04372    0.00986   -0.02016
 99 O    -0.03026   -0.00408    0.01628
100 O    -0.02087    0.02671   -0.03267
101 O     0.01029   -0.02164    0.02850
102 O    -0.01399   -0.02320   -0.03196
103 O     0.01440    0.00845    0.02548
104 O     0.01458   -0.03534    0.02758
105 O    -0.01124    0.04226   -0.01316
106 O    -0.03059   -0.00064    0.03943
107 O     0.03230   -0.00611   -0.02527
108 O     0.00298    0.02115    0.03722
109 O    -0.01277   -0.02186   -0.02556
110 O    -0.01739    0.03544    0.02716
111 O     0.00956   -0.04252   -0.01159
112 O     0.02754   -0.00052    0.04149
113 O    -0.03393    0.00508   -0.02537
114 O    -0.00752   -0.02145    0.03639
115 O     0.00856    0.02160   -0.02594

Timing:                                      incl.     excl.
-------------------------------------------------------------------
Density initialized from wave functions:     1.555     1.555   0.0% |
 Symmetrize density:                         0.000     0.000   0.0% |
Forces:                                     93.339    93.339   2.5% ||
Hamiltonian:                                36.342     0.001   0.0% |
 Atomic:                                    18.228     0.042   0.0% |
  XC Correction:                            18.186    18.186   0.5% |
 Calculate atomic Hamiltonians:              0.257     0.257   0.0% |
 Communicate:                                0.000     0.000   0.0% |
 Hartree integrate/restrict:                 0.117     0.117   0.0% |
 Initialize Hamiltonian:                     0.000     0.000   0.0% |
 Poisson:                                   14.925    14.925   0.4% |
 XC 3D grid:                                 2.781     2.781   0.1% |
 vbar:                                       0.032     0.032   0.0% |
LCAO initialization:                        50.923     0.258   0.0% |
 LCAO eigensolver:                           4.382     0.001   0.0% |
  Calculate projections:                     0.036     0.036   0.0% |
  DenseAtomicCorrection:                     0.030     0.030   0.0% |
  Distribute overlap matrix:                 0.000     0.000   0.0% |
  Orbital Layouts:                           0.181     0.181   0.0% |
  Potential matrix:                          4.134     4.134   0.1% |
 LCAO to grid:                              43.125    43.125   1.2% |
 Set positions (LCAO WFS):                   3.158     0.001   0.0% |
  Basic WFS set positions:                   0.003     0.003   0.0% |
  Basis functions set positions:             0.001     0.001   0.0% |
  TCI: Calculate S, T, P:                    3.153     3.153   0.1% |
Redistribute:                                0.091     0.091   0.0% |
SCF-cycle:                                3544.600     0.668   0.0% |
 Davidson:                                2900.597  1061.116  28.4% |----------|
  Apply hamiltonian:                       181.564   181.564   4.9% |-|
  Subspace diag:                           649.859     0.065   0.0% |
   calc_h_matrix:                          349.347   153.850   4.1% |-|
    Apply hamiltonian:                     195.498   195.498   5.2% |-|
   diagonalize:                              5.200     5.200   0.1% |
   rotate_psi:                             295.246   295.246   7.9% |--|
  calc. matrices:                          691.295   511.245  13.7% |----|
   Apply hamiltonian:                      180.049   180.049   4.8% |-|
  diagonalize:                              24.010    24.010   0.6% |
  rotate_psi:                              292.753   292.753   7.8% |--|
 Density:                                   39.389     0.004   0.0% |
  Atomic density matrices:                   1.670     1.670   0.0% |
  Mix:                                      14.052    14.052   0.4% |
  Multipole moments:                         0.264     0.264   0.0% |
  Pseudo density:                           23.401    23.394   0.6% |
   Symmetrize density:                       0.007     0.007   0.0% |
 Hamiltonian:                              579.564     0.021   0.0% |
  Atomic:                                  382.022     1.184   0.0% |
   XC Correction:                          380.838   380.838  10.2% |---|
  Calculate atomic Hamiltonians:             6.812     6.812   0.2% |
  Communicate:                               0.001     0.001   0.0% |
  Hartree integrate/restrict:                1.710     1.710   0.0% |
  Poisson:                                 119.877   119.877   3.2% ||
  XC 3D grid:                               68.361    68.361   1.8% ||
  vbar:                                      0.759     0.759   0.0% |
 Orthonormalize:                            24.383     0.009   0.0% |
  calc_s_matrix:                             3.143     3.143   0.1% |
  inverse-cholesky:                          0.065     0.065   0.0% |
  projections:                              14.314    14.314   0.4% |
  rotate_psi_s:                              6.851     6.851   0.2% |
Set symmetry:                                0.001     0.001   0.0% |
Other:                                       7.508     7.508   0.2% |
-------------------------------------------------------------------
Total:                                              3734.360 100.0%

Memory usage: 1.97 GiB
Date: Tue Aug 21 18:49:23 2018
