LAMMPS (16 Mar 2018)
# Fin dminimud floating point parameter in input script or data file (../fix_nh.cpp:132)energy for Beryl

#----- Initialize Simulation -----
clear
units 		metal
boundary 	p p p
atom_style 	full
bond_style	none
variable	etol equal 1e-25
variable 	ftol equal 1e-25
variable 	maxiter equal 5000
variable 	maxeval equal 10000
variable	probeTemp equal 2000

#----- Create Atoms -----
read_data 	beryl_water_100.mod
  triclinic box = (0 0 0) to (9.208 7.97436 18.376) with tilt (-4.604 0 0)
  1 by 1 by 1 MPI processor grid
  reading atoms ...
  128 atoms
  scanning bonds ...
  2 = max bonds/atom
  scanning angles ...
  1 = max angles/atom
  reading bonds ...
  8 bonds
  reading angles ...
  4 angles
  2 = max # of 1-2 neighbors
  1 = max # of 1-3 neighbors
  1 = max # of 1-4 neighbors
  2 = max # of special neighbors
replicate 	8 8 2
  triclinic box = (0 0 0) to (73.664 63.7949 36.752) with tilt (-36.832 0 0)
  1 by 1 by 1 MPI processor grid
  16384 atoms
  1024 bonds
  512 angles
  2 = max # of 1-2 neighbors
  1 = max # of 1-3 neighbors
  1 = max # of 1-4 neighbors
  2 = max # of special neighbors
  Time spent = 0.00462818 secs

#----- Define Interatomic Potential -----
include 	potential_main.mod
kspace_style 	pppm 1.0e-4

# Neighbor Style
neighbor	0.3 bin
neigh_modify	delay 0 every 1 check yes

# Minimization style
min_style	cg

# Setup Output
thermo		10
thermo_style	custom	step temp vol cella cellb cellc cellgamma pxx pyy pzz pxy pxz pyz lx ly lz press pe #c_eatoms
thermo_modify	norm no
variable 	myVol equal vol
variable	myCella equal cella
variable	myCellb equal cellb
variable	myCellc equal cellc
variable	myCellgamma equal cellgamma
include 	potential_beryl.mod
# Potential Paramters
pair_style 	hybrid/overlay morse 5.5 buck 5.5 lj/cut/coul/long 5.5 15.0
pair_coeff    1    1 morse     		  0 	       0           0  # Be Be
pair_coeff    1    1 buck                 0            1           -201.0
pair_coeff    1    1 lj/cut/coul/long	  10120.	0.413
pair_coeff    1    2 morse     		  0 	       0           0  # Be Al
pair_coeff    1    2 buck                 0            1           0
pair_coeff    1    2 lj/cut/coul/long	  0	       0
pair_coeff    1    3 morse     		  0 	       0           0  # Al Si
pair_coeff    1    3 buck                 0            1           0
pair_coeff    1    3 lj/cut/coul/long	  0	       0
pair_coeff    1    4 morse 		  0.239919     2.527420    1.815405	#Be O
pair_coeff    1    4 buck                 0.000000     1.000000   -46.00000
pair_coeff    1    4 lj/cut/coul/long     529.000      0.528
pair_coeff    2    2 morse     		  0 	       0           0  # Al Al
pair_coeff    2    2 buck                 0            1           -492.
pair_coeff    2    2 lj/cut/coul/long	  60423		0.356
pair_coeff    2    3 morse     		  0 	       0           0  # Al si
pair_coeff    2    3 buck                 0            1           0
pair_coeff    2    3 lj/cut/coul/long	  0	       0
pair_coeff    2    4 morse 		  0.361581     1.900442    2.164818	#Al O
pair_coeff    2    4 buck                 0.000000     1.000000   -71.5
pair_coeff    2    4 lj/cut/coul/long     1420.0	0.482
pair_coeff    3    3 morse     		  0 	       0           0  # Si Si
pair_coeff    3    3 buck                 0            1           -282.
pair_coeff    3    3 lj/cut/coul/long	  19730		0.391
pair_coeff    3    4 morse 		  0.340554     2.006700    2.100000	#Si O
pair_coeff    3    4 buck                 0.000000     1.000000   -60.5
pair_coeff    3    4 lj/cut/coul/long     916.		0.504
pair_coeff    4    4 morse     		  0.042395     1.379316    3.618701  # O O
pair_coeff    4    4 buck                 0.000000     1.000000   -16.7
pair_coeff    4    4 lj/cut/coul/long	  3.16		1.05
include 	potential_water.mod
# Potential Paramters

pair_coeff    1    6 morse     		  0. 	       0.           0.  		# Ow Be
pair_coeff    1    6 buck                 0            1           -354.5
pair_coeff    1    6 lj/cut/coul/long	  39.637	1.1435
pair_coeff    2    6 morse     		  0 	       0           0  		# Ow Al
pair_coeff    2    6 buck                 0            1           -554.6
pair_coeff    2    6 lj/cut/coul/long	  96.854	1.0616
pair_coeff    3    6 morse     		  0 	       0           0  		# Ow Si
pair_coeff    3    6 buck                 0            1           -419.9
pair_coeff    3    6 lj/cut/coul/long	  55.345	1.1126
pair_coeff    4    6 morse     		  0 	       0           0  		# Ow O
pair_coeff    4    6 buck                 0            1           -102.9
pair_coeff    4    6 lj/cut/coul/long	  0.70042	1.8233
pair_coeff    5    6 morse     		  0 	       0           0  # Hw Hw
pair_coeff    5    6 buck                 0            1           0
pair_coeff    5    6 lj/cut/coul/long	  0.000	      0.0
pair_coeff    6    6 morse     		  0 	       0           0  		# Ow Ow
pair_coeff    6    6 buck                 0            1           -625.4
pair_coeff    6    6 lj/cut/coul/long	  0.15525	3.166
pair_coeff    1    5 morse     		  0 	       0           0  # Hw Hw
pair_coeff    1    5 buck                 0            1           0
pair_coeff    1    5 lj/cut/coul/long	  0.000	      0.0
pair_coeff    2    5 morse     		  0 	       0           0  # Hw Hw
pair_coeff    2    5 buck                 0            1           0
pair_coeff    2    5 lj/cut/coul/long	  0.000	      0.0
pair_coeff    3    5 morse     		  0 	       0           0  # Hw Hw
pair_coeff    3    5 buck                 0            1           0
pair_coeff    3    5 lj/cut/coul/long	  0.000	      0.0
pair_coeff    4    5 morse     		  0 	       0           0  # Hw Hw
pair_coeff    4    5 buck                 0            1           0
pair_coeff    4    5 lj/cut/coul/long	  0.000	      0.0
pair_coeff    5    5 morse     		  0 	       0           0  # Hw Hw
pair_coeff    5    5 buck                 0            1           0
pair_coeff    5    5 lj/cut/coul/long	  0.000	      0.0



bond_style	harmonic
angle_style	harmonic
dihedral_style	none
improper_style	none

bond_coeff	1 1000.00 1.000
angle_coeff	1 100.0 109.47


#------ Define Settings -----

# ----- Run Minimization -----
fix 		BRX all box/relax iso 1.013
minimize	1e-25 1e-25 5000 10000 # Performs actual minimization
PPPM initialization ...
WARNING: System is not charge neutral, net charge = -0.4096 (../kspace.cpp:302)
  using 12-bit tables for long-range coulomb (../kspace.cpp:321)
  G vector (1/distance) = 0.201666
  grid = 36 50 24
  stencil order = 5
  estimated absolute RMS force accuracy = 0.00101776
  estimated relative force accuracy = 7.06792e-05
  using double precision FFTs
  3d grid and FFT values/proc = 65395 43200
Neighbor list info ...
  update every 1 steps, delay 0 steps, check yes
  max neighbors/atom: 2000, page size: 100000
  master list distance cutoff = 15.3
  ghost atom cutoff = 15.3
  binsize = 7.65, bins = 15 9 5
  3 neighbor lists, perpetual/occasional/extra = 3 0 0
  (1) pair morse, perpetual
      attributes: half, newton on
      pair build: half/bin/newton/tri
      stencil: half/bin/3d/newton/tri
      bin: standard
  (2) pair buck, perpetual, copy from (1)
      attributes: half, newton on
      pair build: copy
      stencil: none
      bin: none
  (3) pair lj/cut/coul/long, perpetual, copy from (1)
      attributes: half, newton on
      pair build: copy
      stencil: none
      bin: none
Per MPI rank memory allocation (min/avg/max) = 184.1 | 184.1 | 184.1 Mbytes
Step Temp Volume Cella Cellb Cellc CellGamma Pxx Pyy Pzz Pxy Pxz Pyz Lx Ly Lz Press PotEng 
       0            0    172711.88       73.664    73.664001       36.752          120   -204221.37   -202842.58    -274841.9    23.767381    562.25713   -195.00554       73.664    63.794896       36.752   -227301.95   -308836.57 
      10            0    172194.26    73.590336    73.590337    36.715248          120   -192189.23   -194768.65   -263528.48    2321.6464    5712.8844   -2246.7939    73.590336    63.731101    36.715248   -216828.79   -308944.05 
      20            0    171677.68    73.516672    73.516673    36.678496          120   -179015.63   -185559.13   -251813.84    4627.5613    10882.096   -4306.8487    73.516672    63.667306    36.678496   -205462.87   -309011.07 
      30            0    171162.13    73.443008    73.443009    36.641744          120   -165791.96   -176319.42   -240255.44    6944.6436    16070.683   -6373.7411    73.443008    63.603511    36.641744   -194122.27   -309078.28 
      40            0    170647.62    73.369344    73.369345    36.604992          120   -152433.49   -166964.89   -228515.54    9271.0688    21280.841   -8450.0417    73.369344    63.539716    36.604992   -182637.98   -309139.19 
      50            0    170134.13     73.29568    73.295681     36.56824          120   -138934.42   -157481.25   -216539.41     11606.86    26512.675   -10534.023     73.29568    63.475922     36.56824   -170985.03   -309194.97 
      60            0    169621.68    73.222016    73.222017    36.531488          120    -125489.3   -148060.15   -204924.64    13954.608    31763.607   -12626.405    73.222016    63.412127    36.531488   -159491.36   -309253.19 
      70            0    169110.26    73.148352    73.148353    36.494736          120   -111836.58   -138454.86   -192888.02    16306.028    37035.163   -14726.502    73.148352    63.348332    36.494736   -147726.49   -309303.05 
      80            0    168599.87    73.074688    73.074689    36.457984          120   -98097.845   -128779.15   -180713.95    18668.428    42329.219   -16834.766    73.074688    63.284537    36.457984   -135863.65   -309348.96 
      90            0     168090.5    73.001024    73.001025    36.421232          120     -84192.9    -118951.5      -168319    21039.803    47641.944   -18951.544    73.001024    63.220742    36.421232   -123821.13   -309389.94 
     100            0    167582.16     72.92736    72.927361     36.38448          120   -70382.116   -109231.05   -155863.38    23423.203    52976.577   -21075.704     72.92736    63.156947     36.38448   -111825.52   -309431.33 
     110            0    167074.85    72.853696    72.853697    36.347728          120   -56239.697   -99200.706   -143429.71    25811.439    58331.896   -23208.519    72.853696    63.093152    36.347728   -99623.371   -309465.23 
     120            0    166568.56    72.780032    72.780033    36.310976          120   -42025.695   -89112.884   -130869.18    28207.336    63706.915   -25349.785    72.780032    63.029357    36.310976    -87335.92   -309495.57 
     130            0     166063.3    72.706368    72.706369    36.274224          120   -27635.912   -78867.314   -118185.76    30615.062    69101.425    -27499.56    72.706368    62.965562    36.274224   -74896.328   -309521.36 
     140            0    165559.06    72.632704    72.632705    36.237472          120   -13154.566   -68543.964   -105279.82    33030.765     74516.44   -29657.787    72.632704    62.901767    36.237472   -62326.118    -309542.7 
     150            0    165055.84     72.55904    72.559041     36.20072          120    1441.6913   -58118.465   -92355.177    35455.816    79950.495   -31821.248     72.55904    62.837973     36.20072   -49677.317   -309560.73 
     160            0    164553.64    72.485376    72.485377    36.163968          120    16133.142   -47614.799   -79414.427    37885.779    85400.991    -33989.46    72.485376    62.774178    36.163968   -36965.361   -309575.27 
     170            0    164115.06     72.42092    72.420921     36.13181          120    29057.663   -38365.176   -68056.516    40014.929    90181.601   -35892.033     72.42092    62.718357     36.13181    -25788.01   -309585.15 
     177            0    164108.04    72.419888    72.419888    36.131295          120    29265.947   -38215.729   -67871.699    40049.069    90258.205   -35922.515    72.419888    62.717463    36.131295    -25607.16   -309585.27 
Loop time of 136.77 on 1 procs for 177 steps with 16384 atoms

100.0% CPU use with 1 MPI tasks x no OpenMP threads

Minimization stats:
  Stopping criterion = linesearch alpha is zero
  Energy initial, next-to-last, final = 
        -308836.570535     -309585.277588     -309585.277588
  Force two-norm initial, final = 73508.8 8127.34
  Force max compponent initial, final = 73508.6 8004.18
  Final line search alpha, max atom move = 1.86167e-16 1.49012e-12
  Iterations, force evaluations = 177 256

MPI task timing breakdown:
Section |  min time  |  avg time  |  max time  |%varavg| %total
---------------------------------------------------------------
Pair    | 104.55     | 104.55     | 104.55     |   0.0 | 90.25
Bond    | 0.013685   | 0.013685   | 0.013685   |   0.0 |  0.01
Kspace  | 2.9338     | 2.9338     | 2.9338     |   0.0 |  2.53
Neigh   | 5.082      | 5.082      | 5.082      |   0.0 |  4.39
Comm    | 0.072795   | 0.072795   | 0.072795   |   0.0 |  0.06
Output  | 0.0020041  | 0.0020041  | 0.0020041  |   0.0 |  0.00
Modify  | 0          | 0          | 0          |   0.0 |  0.00
Other   |            | 3.187      |            |       |  2.75

Nlocal:    16384 ave 16384 max 16384 min
Histogram: 1 0 0 0 0 0 0 0 0 0
Nghost:    51224 ave 51224 max 51224 min
Histogram: 1 0 0 0 0 0 0 0 0 0
Neighs:    1.2254e+07 ave 1.2254e+07 max 1.2254e+07 min
Histogram: 1 0 0 0 0 0 0 0 0 0

Total # of neighbors = 12253952
Ave neighs/atom = 747.922
Ave special neighs/atom = 0.1875
Neighbor list builds = 15
Dangerous builds = 0
reset_timestep	0
timestep	0.0001
velocity       	all create ${probeTemp} 87287 loop geom
velocity       	all create 2000 87287 loop geom
fix		1 all npt temp ${probeTemp} ${probeTemp} 0.1 iso 1.013 1.013 5.0
fix		1 all npt temp 2000 ${probeTemp} 0.1 iso 1.013 1.013 5.0
fix		1 all npt temp 2000 2000 0.1 iso 1.013 1.013 5.0
run		10000 # Warmup
PPPM initialization ...
  using 12-bit tables for long-range coulomb (../kspace.cpp:321)
  G vector (1/distance) = 0.202498
  grid = 36 50 24
  stencil order = 5
  estimated absolute RMS force accuracy = 0.000966408
  estimated relative force accuracy = 6.71133e-05
  using double precision FFTs
  3d grid and FFT values/proc = 65395 43200
Per MPI rank memory allocation (min/avg/max) = 185.4 | 185.4 | 185.4 Mbytes
Step Temp Volume Cella Cellb Cellc CellGamma Pxx Pyy Pzz Pxy Pxz Pyz Lx Ly Lz Press PotEng 
       0         2000    164108.04    72.419888    72.419888    36.131295          120     56993.42   -10568.079   -40489.425    39706.101    90389.633   -35579.873    72.419888    62.717463    36.131295    1978.6388   -309584.95 
      10    2048.9459       164108    72.419883    72.419883    36.131292          120   -112124.94    -94734.93   -187315.89   -9403.3426   -18512.565    5891.3319    72.419883    62.717459    36.131292   -131391.92   -309697.14 
      20    1914.3156    164107.89    72.419866    72.419866    36.131284          120   -213092.47   -149342.94   -280340.46   -37141.553   -84141.841    35787.916    72.419866    62.717444    36.131284   -214258.63   -309405.78 
      30    1873.5222    164107.69    72.419836    72.419837    36.131269          120    2132.0019   -37285.703   -87155.998    23090.871    50449.934   -16872.655    72.419836    62.717418    36.131269     -40769.9   -309326.48 
      40    1735.7485    164107.42    72.419796    72.419797    36.131249          120    17836.493   -24998.417   -65852.706     25474.65    58481.488   -24206.666    72.419796    62.717384    36.131249    -24338.21   -309034.95 
      50    1570.0762    164107.08    72.419746    72.419747    36.131224          120   -196321.18   -140156.76   -258143.81   -31442.075    -71427.61    25026.865    72.419746    62.717341    36.131224   -198207.25    -308679.5 
      60    1529.4518    164106.66    72.419685    72.419685    36.131194          120   -117143.62   -99783.393   -184906.82   -10267.605   -26086.995    12520.715    72.419685    62.717287    36.131194   -133944.61   -308601.38 
      70    1312.0923    164106.17    72.419612    72.419613    36.131158          120    62557.842     3342.483   -8416.0005     31891.38    72500.201   -23368.461    72.419612    62.717225    36.131158    19161.442   -308128.26 
      80    1350.5348    164105.62    72.419532    72.419532    36.131117          120   -78154.109   -74966.165   -134984.19   -1502.2524   -3560.5629   -1831.7118    72.419532    62.717155    36.131117   -96034.822   -308220.67 
      90    1205.1803    164105.01    72.419442    72.419442    36.131073          120   -197797.99   -149097.07   -249254.19   -25852.838   -62612.051    17945.366    72.419442    62.717077    36.131073   -198716.42   -307900.54 
     100    1253.7007    164104.32    72.419341    72.419342    36.131022          120   -6777.7302   -33816.207   -53525.814    12364.783    26645.278   -5101.9957    72.419341     62.71699    36.131022   -31373.251   -308009.36 
     110    1254.9634    164103.58    72.419232    72.419233    36.130968          120    30774.836   -8927.9929   -6079.3349    17346.342    42668.281   -10150.049    72.419232    62.716896    36.130968    5255.8359   -308008.09 
     120    1262.9281    164102.79    72.419116    72.419116     36.13091          120    -167878.6   -137627.98   -206221.55   -15013.648    -37374.37    4703.1918    72.419116    62.716795     36.13091   -170576.04   -308021.19 
     130    1364.9528    164101.93     72.41899     72.41899    36.130847          120   -125038.19   -110483.18   -157046.41   -6742.1794   -20945.732    2461.8924     72.41899    62.716685    36.130847   -130855.93   -308242.82 
     140    1327.9772    164101.02    72.418854    72.418855    36.130779          120    46868.829    7435.1201    35431.073    14072.158    36496.063   -2666.0694    72.418854    62.716568    36.130779    29911.674   -308152.01 
     150    1480.7183    164100.05    72.418712    72.418713    36.130709          120   -58183.742   -66259.159    -72786.24     698.1469    3912.1981   -1430.2037    72.418712    62.716445    36.130709   -65743.047   -308487.44 
     160    1370.4463    164099.03    72.418563    72.418563    36.130634          120   -188294.37   -160967.04   -214025.06   -10195.474    -30292.67   -2579.9485    72.418563    62.716316    36.130634   -187762.16   -308237.32 
     170    1517.6358    164097.95    72.418404    72.418404    36.130555          120   -27044.447    -39485.87   -25999.243    3366.5962    7688.7073     778.9813    72.418404    62.716178    36.130555   -30843.187   -308559.95 
     180    1426.2626    164096.82    72.418238    72.418238    36.130472          120    33596.217    8804.2503    50390.574    5473.3913    18663.709    2957.6963    72.418238    62.716034    36.130472    30930.347   -308354.68 
     190    1458.0453    164095.66    72.418066    72.418067    36.130386          120   -140564.03   -129014.77   -149477.42   -4494.7821   -12196.099    -4762.324    72.418066    62.715886    36.130386   -139685.41   -308424.07 
     200    1473.4957    164094.44    72.417887    72.417888    36.130297          120   -126244.71   -117485.25   -127945.69   -2312.1622   -8716.9751   -4090.8078    72.417887    62.715731    36.130297   -123891.88   -308455.81 
     210    1401.6862    164093.18    72.417701    72.417702    36.130204          120     43947.72    27954.366    81696.344    2740.9322    10242.514    5814.3473    72.417701     62.71557    36.130204    51199.476   -308294.62 
     220    1503.3861    164091.88    72.417511    72.417512    36.130109          120   -30088.214   -33851.168   -5839.9145   -614.10076     1480.849    610.73294    72.417511    62.715405    36.130109   -23259.765   -308518.58 
     230    1395.9331    164090.56    72.417316    72.417317    36.130012          120   -162895.75   -152203.26   -165264.58   -2604.6428    -6132.002   -7724.0888    72.417316    62.715236    36.130012    -160121.2   -308275.41 
     240    1522.8083    164089.19    72.417115    72.417116    36.129912          120   -23915.895   -25502.053    12565.084    150.84053    867.84668    1872.4093    72.417115    62.715062    36.129912   -12284.288   -308555.25 
     250    1440.4909     164087.8    72.416911    72.416911     36.12981          120    53463.718    48352.485    110597.74   -241.76463    443.57853    6205.3883    72.416911    62.714885     36.12981    70804.648   -308366.33 
     260    1531.9158     164086.4    72.416704    72.416704    36.129707          120   -100646.86   -96399.342   -82964.616   -2191.8117   -315.24494    -4208.797    72.416704    62.714706    36.129707   -93336.941   -308566.32 
     270    1492.4769    164084.97    72.416493    72.416494    36.129601          120    -108446.3   -103179.14    -86151.46   -660.55175    1189.5351   -4080.5988    72.416493    62.714524    36.129601   -99258.966   -308475.88 
     280    1497.8096    164083.51     72.41628     72.41628    36.129495          120    57692.261    57897.578     128391.9      145.539   -4290.2032    5939.4454     72.41628    62.714338    36.129495    81327.246   -308483.76 
     290    1535.6082    164082.06    72.416065    72.416066    36.129388          120    9613.6093    10089.399     64471.37   -2093.1331   -2626.7883    2300.8082    72.416065    62.714153    36.129388    28058.126   -308566.85 
     300    1418.2269     164080.6    72.415851    72.415851    36.129281          120   -127968.47   -122497.89   -107264.91   -1979.2318    4862.3171   -5501.7841    72.415851    62.713967    36.129281   -119243.75   -308306.39 
     310    1500.1794    164079.12    72.415634    72.415634    36.129173          120   -11957.635   -6628.4631    48432.281    956.88717   -2311.1894    1212.4522    72.415634    62.713779    36.129173    9948.7275      -308488 
     320    1369.4829    164077.65    72.415417    72.415418    36.129065          120     85672.74    85362.587    171651.23   -579.79575   -8654.9206    5676.8741    72.415417    62.713592    36.129065    114228.85    -308198.3 
     330    1398.8689    164076.19    72.415203    72.415203    36.128958          120   -57869.326   -55099.546   -13251.691   -3268.9412    2389.2999   -2220.7761    72.415203    62.713406    36.128958   -42073.521   -308266.09 
     340     1340.706    164074.74    72.414988    72.414989    36.128851          120   -92462.287   -83533.906   -50068.849    6.7549362    4729.4495   -2757.7045    72.414988     62.71322    36.128851   -75355.014   -308135.86 
     350    1319.1184    164073.28    72.414774    72.414775    36.128744          120    76269.113    77194.076    165672.25    1821.1774   -9201.2303     4519.068    72.414774    62.713035    36.128744    106378.48   -308087.56 
     360    1344.2859    164071.85    72.414563    72.414564    36.128639          120    48057.554     45724.94    124914.25   -1970.1176   -6047.2784    1801.8557    72.414563    62.712852    36.128639    72898.915   -308142.27 
     370    1285.0303    164070.43    72.414355    72.414356    36.128535          120   -106517.91   -97998.923   -67262.005    -2486.719    7671.4305   -3435.0639    72.414355    62.712672    36.128535   -90592.946   -308006.45 
     380    1380.0002    164069.02    72.414148    72.414148    36.128431          120   -6525.4931   -524.08082    61506.487    2419.6099   -1864.9111    990.33367    72.414148    62.712492    36.128431    18152.304   -308214.46 
     390     1308.295    164067.63    72.413943    72.413943    36.128329          120    109042.96    102528.34    199473.46    1497.5199   -12405.081    3602.5878    72.413943    62.712315    36.128329    137014.92   -308049.37 
     400    1416.4147    164066.26    72.413742    72.413742    36.128229          120   -32218.038   -30837.012    22518.686   -3093.9816    1539.0344   -1263.1625    72.413742    62.712141    36.128229   -13512.121   -308284.17 
     410    1376.2444    164064.91    72.413543    72.413543    36.128129          120   -90137.817   -78997.587   -44406.688   -276.25292    7246.0251    -1888.062    72.413543    62.711968    36.128129   -71180.697   -308190.32 
     420    1411.0405    164063.57    72.413346    72.413346    36.128031          120    80885.225    77667.392    159697.72    3767.3347   -10110.422    2398.1652    72.413346    62.711797    36.128031    106083.45   -308261.57 
     430    1472.2875    164062.25    72.413152    72.413153    36.127934          120    72067.849    64280.896    143085.98    40.100831    -9074.936     2231.264    72.413152     62.71163    36.127934    93144.908   -308392.56 
     440    1389.4125    164060.96    72.412962    72.412963     36.12784          120   -95001.717   -85799.427   -55549.689    -3311.497    8839.4894     -1946.01    72.412962    62.711466     36.12784   -78783.611    -308204.7 
     450     1516.076    164059.69    72.412774    72.412775    36.127746          120    -12507.46   -5963.2267    42024.196    1885.3016   -51.209233    -890.4262    72.412774    62.711303    36.127746    7851.1697   -308481.33 
     460    1412.1294    164058.43    72.412589    72.412589    36.127653          120     121028.8    110349.73     192439.5    3213.1307   -14175.754    3754.9348    72.412589    62.711142    36.127653    141272.67   -308244.51 
     470    1518.6714     164057.2    72.412408    72.412408    36.127563          120   -10421.914   -9862.2427     35958.92   -2377.8679    382.51628    647.90775    72.412408    62.710985    36.127563    5224.9211   -308478.93 
     480    1449.8584    164055.98    72.412229     72.41223    36.127474          120   -93912.321   -79947.861   -61453.148   -2261.1185    9083.7023   -3620.9753    72.412229    62.710831    36.127474   -78437.777   -308319.57 
     490    1518.4378    164054.78    72.412053    72.412053    36.127386          120    78905.515    73881.822    132353.43    2575.4733   -9417.6835    1979.2903    72.412053    62.710678    36.127386    95046.923   -308466.84 
     500     1521.229     164053.6     72.41188     72.41188      36.1273          120    89977.624    81278.529    140561.02    552.11649   -10111.573     3795.227     72.41188    62.710528      36.1273    103939.06   -308468.69 
     510     1502.289    164052.45     72.41171    72.411711    36.127215          120   -88662.846   -74419.009   -64605.141    -3480.542    8424.2812   -3056.2619     72.41171    62.710381    36.127215   -75895.666   -308420.02 
     520    1608.5923    164051.31    72.411542    72.411543    36.127131          120   -22352.178   -15617.117    4335.1238   -542.43394    1278.3116   -1288.2741    72.411542    62.710236    36.127131    -11211.39   -308651.87 
     530    1499.3567    164050.18    72.411376    72.411377    36.127048          120    125942.64    113807.11    165720.69    1340.4084   -13914.542    4863.3541    72.411376    62.710092    36.127048    135156.82   -308403.11 
     540    1662.4745    164049.08    72.411214    72.411215    36.126968          120    2431.4037    8903.4233    25749.404   -1497.9752   -1337.8322    168.42008    72.411214    62.709951    36.126968     12361.41   -308760.12 
     550    1537.7069    164047.99    72.411054    72.411054    36.126888          120   -99735.687   -80632.148   -94770.044   -2234.5539     9285.218   -3330.2549    72.411054    62.709813    36.126888   -91712.626   -308478.03 
     560    1649.8644    164046.91    72.410895    72.410895    36.126808          120    71524.059    66664.498    86860.858    291.94738   -7581.7597    3099.1356    72.410895    62.709675    36.126808    75016.472    -308723.3 
     570    1615.0732    164045.84    72.410738    72.410738     36.12673          120    99781.649    95711.076    115475.44    57.093693    -11058.91    3205.5224    72.410738    62.709539     36.12673    103656.06   -308639.96 
     580    1614.9359     164044.8    72.410584    72.410584    36.126653          120   -79011.069   -57971.368    -87760.07   -1683.9382    7111.8848   -2799.2134    72.410584    62.709406    36.126653   -74914.169   -308637.59 
     590    1660.3766    164043.76    72.410431    72.410431    36.126577          120   -33928.616   -22998.605   -48344.391   -1053.0723    4563.2627   -130.51449    72.410431    62.709273    36.126577   -35090.537   -308734.64 
     600    1601.2721    164042.72    72.410278    72.410279    36.126501          120    125753.26    119402.49    122809.79   -215.89266   -11920.109    4316.2679    72.410278    62.709141    36.126501    122655.18   -308598.04 
     610    1692.4406     164041.7    72.410128    72.410129    36.126426          120    21662.693    32497.104    1878.2671    -849.0167   -1815.9353    140.57233    72.410128    62.709011    36.126426    18679.355   -308799.21 
     620     1585.801    164040.69     72.40998    72.409981    36.126352          120   -98541.813   -76598.929   -140308.68    -1873.647    11331.118   -2439.4498     72.40998    62.708883    36.126352   -105149.81   -308557.63 
     630    1707.4681    164039.68    72.409831    72.409832    36.126278          120    59901.811    62952.232    29882.467   -1495.8532   -3695.5372    2867.0486    72.409831    62.708754    36.126278     50912.17    -308824.2 
     640    1619.4303    164038.68    72.409684    72.409684    36.126204          120    113323.05    114279.05    82346.954   -882.25924    -8240.837    3800.9683    72.409684    62.708626    36.126204    103316.35   -308625.46 
     650    1673.9292    164037.69    72.409538    72.409539    36.126132          120   -61924.208   -42005.584   -123012.39   -1602.1724    8470.3037   -2088.1342    72.409538      62.7085    36.126132   -75647.395   -308743.05 
     660    1683.6183     164036.7    72.409393    72.409393    36.126059          120   -44440.205   -29388.177   -106062.54   -2385.6431    5687.1085   -411.28984    72.409393    62.708374    36.126059    -59963.64   -308760.73 
     670    1633.1086    164035.71    72.409246    72.409247    36.125986          120    124138.95    123571.04    79012.504   -1202.0565   -8172.6256    5732.4156    72.409246    62.708247    36.125986     108907.5   -308645.54 
     680    1720.1296    164034.72    72.409102    72.409102    36.125914          120    40685.844    50485.977   -27430.652   -888.06419    1270.1187    1803.7268    72.409102    62.708122    36.125914    21247.056   -308835.53 
     690    1618.6433    164033.74    72.408957    72.408958    36.125842          120   -94519.154   -74348.164   -184392.32   -2098.1165    9970.9284   -2973.0856    72.408957    62.707997    36.125842   -117753.21   -308607.43 
     700    1693.8232    164032.75    72.408811    72.408812    36.125769          120    47634.612    52907.691   -19811.206   -1298.5632   -3088.2049    3985.2951    72.408811    62.707871    36.125769    26910.366   -308773.13 
     710    1631.0506    164031.76    72.408665    72.408666    36.125696          120    121099.42    122097.06    54442.195   -215.73061   -4735.4828    6648.3412    72.408665    62.707744    36.125696    99212.893   -308629.91 
     720     1644.503    164030.78    72.408521    72.408521    36.125624          120   -46792.677   -30387.876   -147476.88   -1177.9301     8152.773   -1158.2258    72.408521    62.707619    36.125624   -74885.809   -308659.35 
     730    1627.5518    164029.78    72.408374    72.408375    36.125551          120   -53131.334    -40075.35   -149701.25   -1138.0215    3493.7805   -55.034358    72.408374    62.707492    36.125551    -80969.31   -308620.59 
     740    1589.1598    164028.78    72.408226    72.408227    36.125477          120    116529.53     114771.8    44326.238    429.25494   -5949.9324    7880.0298    72.408226    62.707364    36.125477    91875.857    -308531.8 
     750     1637.161    164027.77    72.408079    72.408079    36.125403          120    54595.981    61368.572   -36694.604   -214.04919    2276.8216    4100.4327    72.408079    62.707236    36.125403    26423.316   -308638.61 
     760    1519.2595    164026.77    72.407931    72.407931     36.12533          120   -93649.247   -76331.082   -209411.22   -1006.2039    8127.7434   -1672.1256    72.407931    62.707108     36.12533   -126463.85   -308374.77 
     770    1621.7061    164025.75     72.40778    72.407781    36.125254          120     31998.15    34256.346   -59498.726    522.32442    -2283.713    4858.8359     72.40778    62.706978    36.125254    2251.9234   -308600.01 
     780     1506.337    164024.72    72.407629    72.407629    36.125179          120    123410.94    121212.02    43507.985    461.97623   -3177.6029    7461.8826    72.407629    62.706847    36.125179     96043.65   -308342.33 
     790    1551.2702    164023.69    72.407477    72.407478    36.125103          120   -37653.842   -24917.652   -150346.21   -851.75466    7752.6609    1180.9695    72.407477    62.706715    36.125103   -70972.567   -308440.75 
     800    1531.2544    164022.64    72.407324    72.407324    36.125027          120   -66426.507    -56341.32   -180949.98    297.87036    4273.8645    1457.7498    72.407324    62.706582    36.125027   -101239.27   -308393.58 
     810    1479.2462    164021.58    72.407167    72.407168    36.124949          120    104836.44    101829.72    23920.271    618.81667   -4599.2392    6692.6315    72.407167    62.706447    36.124949    76862.143   -308276.33 
     820    1554.3003    164020.51     72.40701    72.407011     36.12487          120    63054.901    66033.166   -30579.262   -823.92575    2174.0037    4549.3612     72.40701    62.706311     36.12487    32836.268   -308440.84 
     830    1436.2515    164019.44    72.406852    72.406853    36.124791          120   -94259.343   -82559.172   -218744.92    260.59674    9158.7291     990.7015    72.406852    62.706174    36.124791   -131854.48   -308175.14 
     840     1547.487    164018.34    72.406691    72.406692    36.124711          120    13669.249    17660.233   -82421.063    1280.7135     -495.127    3697.3219    72.406691    62.706035    36.124711   -17030.527   -308421.62 
     850    1428.6134    164017.24    72.406528    72.406529     36.12463          120    119304.64    119396.29    42874.339    -1022.351   -3417.1851    5600.2563    72.406528    62.705893     36.12463    93858.422    -308152.6 
     860     1524.728    164016.13    72.406365    72.406365    36.124548          120   -25836.678   -20686.471   -136715.38   -498.67933    6632.3153    2666.2029    72.406365    62.705752    36.124548   -61079.509    -308364.6 
     870    1438.9495       164015    72.406199      72.4062    36.124465          120   -76805.766   -69211.971   -192610.96    2319.0981    5980.8246    1132.5732    72.406199    62.705608    36.124465   -112876.23   -308171.99 
     880    1473.2515    164013.85     72.40603    72.406031    36.124381          120    89584.142    94863.824    13439.697   -300.18184   -3758.6779    4932.4107     72.40603    62.705462    36.124381    65962.554   -308244.17 
     890    1498.0122     164012.7     72.40586    72.405861    36.124297          120     72594.49    74977.368   -11257.073   -1865.5015   -204.32651    4716.0546     72.40586    62.705315    36.124297    45438.262   -308296.72 
     900    1408.9323    164011.54     72.40569    72.405691    36.124212          120   -86299.823   -82161.568   -207055.51    1728.0274    8336.0906    284.40062     72.40569    62.705168    36.124212    -125172.3    -308096.3 
     910    1539.8485    164010.36    72.405516    72.405517    36.124125          120   -1326.4256    7132.4615   -96987.812    1508.2871    1138.5413    2629.9589    72.405516    62.705017    36.124125   -30393.925   -308383.06 
     920    1413.4121    164009.17    72.405341    72.405342    36.124037          120    119539.77    125397.43    54521.354    -2036.406   -5004.8893    5929.6857    72.405341    62.704865    36.124037    99819.519   -308097.74 
     930    1541.5153    164007.98    72.405166    72.405166     36.12395          120   -8486.4959   -5995.2175   -108765.12   -344.08887    4025.3515    2135.9658    72.405166    62.704714     36.12395   -41082.278   -308380.24 
     940    1459.1754    164006.77    72.404989    72.404989    36.123862          120   -78970.557   -73130.121   -197119.11    2421.7789    6828.6716    286.63244    72.404989     62.70456    36.123862    -116406.6   -308190.84 
     950    1536.8807    164005.55    72.404809     72.40481    36.123772          120    84037.491    92159.604    14209.548   -959.15312    -4297.789    4419.4477    72.404809    62.704405    36.123772    63468.881   -308359.82 
     960    1529.4634    164004.33    72.404629     72.40463    36.123682          120    86298.696    91334.705    16963.637   -2194.2219   -2898.8445    3935.8415    72.404629    62.704249    36.123682    64865.679   -308338.43 
     970    1528.3643    164003.11     72.40445     72.40445    36.123593          120       -72972   -69968.959   -190587.57    2062.8698    7008.1479    473.94045     72.40445    62.704093    36.123593   -111176.18   -308330.42 
     980    1599.9264    164001.88    72.404268    72.404269    36.123502          120   -5322.3413    706.76368   -100832.99    1209.7304    869.57855    1741.9736    72.404268    62.703936    36.123502   -35149.521   -308485.52 
     990    1528.2759    164000.64    72.404085    72.404086    36.123411          120     125412.4    132624.77    73003.242    -3442.393   -6492.7875    2862.1377    72.404085    62.703778    36.123411     110346.8   -308320.45 
    1000    1651.4195     163999.4    72.403904    72.403904     36.12332          120    11395.555    15000.169   -77416.032   -50.729274    1134.0542     1952.174    72.403904    62.703621     36.12332   -17006.769   -308589.78 
    1010    1549.9354    163998.16    72.403722    72.403722     36.12323          120    -71609.91   -69025.863    -188298.6    3834.7344    4606.7547     1797.787    72.403722    62.703463     36.12323   -109644.79   -308360.34 
    1020    1641.9363    163996.92    72.403538    72.403539    36.123138          120    82350.963    89078.279     18299.54    -2169.476    -3974.459    1037.0809    72.403538    62.703304    36.123138    63242.927   -308559.74 
    1030    1618.6679    163995.68    72.403356    72.403356    36.123047          120    103515.14    109740.07    49331.762    -3925.206   -4324.8071    1538.7678    72.403356    62.703146    36.123047    87528.991   -308503.24 
    1040    1600.2487    163994.45    72.403175    72.403175    36.122957          120   -53598.369   -52665.519   -159971.09    3362.3208    2893.8361    3290.2108    72.403175    62.702989    36.122957   -88744.991   -308459.68 
    1050    1660.0641    163993.22    72.402993    72.402994    36.122866          120   -7282.9093   -4000.4959   -99229.423    1782.1425    591.26156    1453.2553    72.402993    62.702832    36.122866   -36837.609   -308588.04 
    1060    1594.2595    163991.98    72.402812    72.402813    36.122776          120    133285.79     141239.4    91195.501   -5620.9705   -4794.4328    177.24841    72.402812    62.702675    36.122776     121906.9   -308437.21 
    1070     1672.006    163990.77    72.402633    72.402634    36.122687          120    35210.447    38153.644   -35119.655   -982.03624   -1030.1856    2476.7965    72.402633     62.70252    36.122687    12748.145   -308608.15 
    1080    1594.6369    163989.56    72.402456    72.402456    36.122598          120   -66277.014   -67497.478   -169538.38    4648.9786    1478.3428    2145.3348    72.402456    62.702367    36.122598   -101104.29   -308431.14 
    1090    1667.8844    163988.36    72.402278    72.402279    36.122509          120    80498.024    86241.564    23556.811   -2855.4421   -2683.4516   -32.044996    72.402278    62.702213    36.122509    63432.133   -308590.67 
    1100    1623.5027    163987.17    72.402103    72.402104    36.122422          120    121990.89    129605.33    83165.886   -5198.2303   -2158.8494    1007.2365    72.402103    62.702061    36.122422    111587.37   -308488.75 
    1110    1630.5275       163986    72.401931    72.401931    36.122336          120   -39524.271   -40443.881   -122007.47    3038.6718   -15.911376    1704.1047    72.401931    62.701912    36.122336   -67325.208   -308499.98 
    1120    1673.3141    163984.83    72.401759     72.40176    36.122251          120   -12049.389   -11648.368   -87295.415    2136.9862   -2691.1005    184.68243    72.401759    62.701764    36.122251   -36997.724    -308592.6 
    1130    1587.1647    163983.68     72.40159     72.40159    36.122166          120    138976.24    148249.84    107270.74   -5071.2585   -1319.9486    861.15719     72.40159    62.701617    36.122166    131498.94   -308397.02 
    1140    1708.4826    163982.55    72.401423    72.401424    36.122083          120    54006.495    58762.819    6186.5429    -1449.137    758.98485    1199.6955    72.401423    62.701473    36.122083    39651.952   -308663.09 
    1150    1577.5388    163981.44     72.40126    72.401261    36.122001          120   -65515.593   -68083.054   -139389.49    4019.0018   -3524.3969    166.93376     72.40126    62.701331    36.122001   -90996.046   -308369.39 
    1160    1680.0762    163980.34    72.401098    72.401099    36.121921          120    74259.081    79815.229    33045.615   -1537.8146   -2806.5084    858.13157    72.401098    62.701191    36.121921    62373.308   -308594.33 
    1170    1619.8397    163979.26    72.400939     72.40094    36.121841          120    135103.51    144459.34    110235.18   -3894.6083    2630.1054     613.3044    72.400939    62.701053    36.121841    129932.68   -308455.83 
    1180    1625.8631    163978.21    72.400785    72.400785    36.121764          120   -26348.455   -26174.713   -79948.194    1531.8895   -850.81669    131.52796    72.400785     62.70092    36.121764    -44157.12   -308468.03 
    1190    1645.0486    163977.18    72.400633    72.400633    36.121688          120   -23459.667   -21686.254   -72051.574    1156.4248   -5718.2462    1044.8265    72.400633    62.700788    36.121688   -39065.832   -308507.74 
    1200    1584.4171    163976.16    72.400483    72.400484    36.121614          120    138304.79    147973.81    119649.27   -3301.1636    788.32706    173.69525    72.400483    62.700658    36.121614    135309.29   -308368.67 
    1210    1667.0916    163975.17    72.400338    72.400339    36.121541          120    72906.981    77638.886    43795.682   -1359.7453    2624.9712    323.59771    72.400338    62.700533    36.121541    64780.516   -308552.06 
    1220    1536.1366    163974.21    72.400197    72.400198    36.121471          120    -68598.12   -67708.821   -114156.15    1483.8029   -5296.4261    2125.8632    72.400197     62.70041    36.121471   -83487.697   -308256.83 
    1230    1674.3477    163973.27    72.400058    72.400059    36.121402          120    59775.527    68177.429    38587.627   -1552.9059   -3802.4584    543.29283    72.400058     62.70029    36.121402    55513.527    -308561.5 
    1240     1540.684    163972.35    72.399923    72.399924    36.121334          120    143707.26    152060.29    133945.49   -2411.1566    2436.9777    184.90363    72.399923    62.700173    36.121334    143237.68   -308261.49 
    1250    1635.2159    163971.47    72.399793    72.399794     36.12127          120   -15641.053   -14587.802   -48390.017    635.73634   -1824.4017    2688.5277    72.399793    62.700061     36.12127   -26206.291   -308468.22 
    1260    1597.1844    163970.61    72.399666    72.399667    36.121206          120   -39122.818   -33877.993   -66758.405     365.0333   -6537.1858    1813.0314    72.399666    62.699951    36.121206   -46586.405   -308379.68 
    1270    1579.2422    163969.77    72.399542    72.399543    36.121144          120    129305.23    140904.42    130025.08   -1958.5411   -1291.5338    63.186748    72.399542    62.699844    36.121144    133411.58    -308336.4 
    1280    1655.7828    163968.96    72.399423    72.399424    36.121085          120    82961.975    87322.642     71531.44   -418.85658   -120.95581    1805.3338    72.399423    62.699741    36.121085    80605.352   -308502.31 
    1290    1549.5693    163968.18    72.399309    72.399309    36.121028          120   -68843.926   -68905.656   -99629.176    1889.0512    -5495.077    1582.5996    72.399309    62.699641    36.121028   -79126.253   -308262.65 
    1300     1663.471    163967.42    72.399197    72.399197    36.120972          120    40166.836    51102.471    37638.678   -166.83369   -4792.6103    222.35294    72.399197    62.699544    36.120972    42969.328    -308513.5 
    1310    1561.5588    163966.68    72.399089    72.399089    36.120918          120    141006.22    152337.84     150087.1   -1729.5288   -1749.9315    1524.0022    72.399089    62.699451    36.120918    147810.39    -308281.3 
    1320      1651.45    163965.98    72.398986    72.398986    36.120867          120   -3601.6709   -5778.1065    -25241.19    1515.3941   -3492.1472    290.79494    72.398986    62.699361    36.120867   -11540.322   -308479.61 
    1330    1577.1603    163965.31    72.398886    72.398887    36.120817          120   -51869.052   -47475.792   -69109.905    2466.5888   -4906.6757   -455.72593    72.398886    62.699275    36.120817   -56151.583   -308310.91 
    1340    1625.1974    163964.65    72.398789     72.39879    36.120769          120    113741.27    129959.21    127730.37     -1928.71   -3731.5043    2372.3903    72.398789    62.699191    36.120769    123810.28    -308413.2 
    1350    1628.3609    163964.02    72.398697    72.398698    36.120723          120    93510.838    96917.339    90506.851   -835.80549   -3226.7973     923.6973    72.398697    62.699112    36.120723    93645.009   -308417.65 
    1360    1571.8052    163963.43     72.39861     72.39861    36.120679          120    -65329.97   -68926.143   -93982.895    3653.5418   -3538.5266   -1741.8897     72.39861    62.699036    36.120679   -76079.669   -308288.62 
    1370    1669.7643    163962.85    72.398525    72.398525    36.120637          120    20930.613    33994.509    19596.089     182.0311   -3918.7634    1721.3052    72.398525    62.698962    36.120637    24840.404   -308501.96 
    1380    1564.7026     163962.3    72.398443    72.398444    36.120596          120    142271.57    153958.46    152376.76   -2644.2713   -3373.3812    2499.7533    72.398443    62.698892    36.120596     149535.6   -308265.09 
    1390    1660.2382    163961.78    72.398367    72.398367    36.120558          120    9447.3074    3749.5483   -15325.351    2444.7318   -3689.1483   -1404.3398    72.398367    62.698825    36.120558   -709.49858   -308473.97 
    1400    1604.0141    163961.28    72.398293    72.398294    36.120521          120   -60663.831   -57705.535   -87494.804    2978.0741   -4580.1844   -666.04607    72.398293    62.698762    36.120521    -68621.39   -308344.22 
    1410    1630.3028     163960.8    72.398222    72.398223    36.120486          120    104693.24     119317.2     108843.8   -2170.6762   -3276.6266    2015.9347    72.398222      62.6987    36.120486    110951.41   -308399.81 
    1420    1659.3621    163960.35    72.398156    72.398156    36.120453          120    104740.17    105161.83    94171.924    217.07382   -3444.3623   -50.444933    72.398156    62.698643    36.120453    101357.97   -308459.55 
    1430    1615.3675    163959.92    72.398093    72.398094    36.120421          120   -59358.063   -66517.195   -103613.13    4090.0048   -6305.3452   -2236.1391    72.398093    62.698589    36.120421   -76496.129   -308357.38 
    1440     1695.075    163959.51    72.398033    72.398033    36.120391          120    9914.1767    19398.323   -11912.847   -289.90978   -4832.7467   -326.96339    72.398033    62.698536    36.120391    5799.8842   -308531.71 
    1450     1622.289    163959.12    72.397975    72.397975    36.120362          120     141178.8    149864.01     138485.1   -1700.4509   -2427.5001    671.72028    72.397975    62.698486    36.120362    143175.97   -308363.77 
    1460    1719.3543    163958.76    72.397922    72.397922    36.120336          120    22447.904    14580.268   -18259.929    2905.6123   -5856.9474   -1606.2329    72.397922     62.69844    36.120336    6256.0809   -308576.19 
    1470    1638.0431    163958.41    72.397871    72.397871    36.120311          120   -62917.762   -65175.358   -117556.67    1732.4516   -7150.9073   -2322.3504    72.397871    62.698396    36.120311   -81883.263   -308392.25 
    1480    1700.3343    163958.08    72.397822    72.397822    36.120286          120    91168.231    102951.77    76586.242   -2822.6188   -2691.9058     238.0963    72.397822    62.698353    36.120286    90235.413   -308525.42 
    1490    1700.2569    163957.76    72.397776    72.397776    36.120263          120    110712.43    113000.35    87892.392   -570.41969   -3426.0968  -0.48751783    72.397776    62.698314    36.120263    103868.39   -308521.87 
    1500    1642.4385    163957.47    72.397733    72.397734    36.120242          120   -51043.653   -61223.397   -120264.26    2846.2274   -7017.6852   -2318.4522    72.397733    62.698277    36.120242   -77510.435   -308390.46 
    1510    1745.8039    163957.19    72.397692    72.397692    36.120221          120   -3371.6517   -672.36776   -51964.843    -1423.764   -4149.1578   -1156.1516    72.397692    62.698241    36.120221   -18669.621   -308616.33 
    1520    1625.5451    163956.92    72.397652    72.397652    36.120201          120    133771.73       145483    117880.78   -4209.1665   -2307.6568    790.51361    72.397652    62.698206    36.120201     132378.5   -308345.22 
    1530     1748.137    163956.67    72.397615    72.397616    36.120183          120    31581.136    28173.158   -22015.811    268.13252   -4830.3394   -820.12516    72.397615    62.698175    36.120183    12579.495   -308615.34 
    1540    1643.5069    163956.44    72.397581    72.397581    36.120166          120   -67435.031   -78164.297   -149217.13    2002.0067   -5065.1587   -2184.7132    72.397581    62.698145    36.120166   -98272.152   -308377.58 
    1550    1728.4094    163956.21    72.397546    72.397547    36.120149          120    79177.079    86123.481     41059.24   -3891.5956   -3167.0603   -34.925544    72.397546    62.698115    36.120149      68786.6   -308563.62 
    1560    1689.5025    163955.99    72.397514    72.397515    36.120133          120    111564.31    120099.59    78943.254   -4462.5291   -3352.4683    488.62559    72.397514    62.698087    36.120133    103535.72   -308472.81 
    1570    1693.8222    163955.79    72.397485    72.397485    36.120118          120   -48066.734   -58082.408   -131830.48    2027.6841   -4211.4489   -1773.0868    72.397485    62.698061    36.120118   -79326.543   -308477.97 
    1580     1740.859    163955.58    72.397455    72.397456    36.120103          120   -14504.685    -20439.67   -90175.916    586.30058   -4662.5849   -1444.0633    72.397455    62.698036    36.120103   -41706.757   -308579.87 
    1590    1654.1532    163955.39    72.397426    72.397426    36.120088          120    128096.31    137238.95    94046.937   -5476.3146   -3602.8107    464.26051    72.397426    62.698011    36.120088    119794.07   -308381.81 
    1600    1785.4979    163955.21    72.397399      72.3974    36.120075          120    38311.347    38416.981   -24010.928   -2163.4389   -2677.8737   -969.77766    72.397399    62.697987    36.120075    17572.467   -308670.64 
    1610    1635.7982    163955.03    72.397373    72.397374    36.120062          120   -73027.695   -83189.658      -171776    3169.3764   -4372.3603   -1892.4394    72.397373    62.697965    36.120062   -109331.12   -308334.71 
    1620    1769.0798    163954.85    72.397347    72.397347    36.120049          120    66294.141     68301.13     7962.922   -1376.1171   -5178.4095   -524.65698    72.397347    62.697942    36.120049    47519.398   -308627.36 
    1630    1679.1154    163954.68    72.397322    72.397322    36.120036          120    117081.79    122240.23    72307.638   -4978.9709   -3021.3305   -1080.6457    72.397322     62.69792    36.120036    103876.55   -308423.21 
    1640    1708.6837    163954.52    72.397298    72.397299    36.120025          120   -40349.768   -46036.715   -134696.97    694.79306   -2793.4119   -1883.4159    72.397298      62.6979    36.120025   -73694.484   -308487.79 
    1650    1712.3689    163954.36    72.397274    72.397275    36.120013          120   -29132.094   -33094.114   -121608.27    3099.5714   -5270.3224    -453.1738    72.397274    62.697879    36.120013   -61278.159    -308491.8 
    1660    1666.0212    163954.19     72.39725    72.397251    36.120001          120    125651.36    130195.87    77645.423   -3734.3401    -4515.114   -1455.0444     72.39725    62.697859    36.120001    111164.22    -308385.4 
    1670    1729.2611    163954.04    72.397228    72.397229     36.11999          120    52378.819    53326.466   -18820.195   -3393.5284   -3080.5996   -2841.1372    72.397228    62.697839     36.11999    28961.697   -308524.64 
    1680    1628.2503     163953.9    72.397207    72.397207    36.119979          120    -74833.05   -81247.524   -186527.53    3098.3948   -3445.9834   -436.99531    72.397207    62.697821    36.119979    -114202.7   -308295.97 
    1690    1732.2067    163953.74    72.397184    72.397185    36.119968          120    56443.266    56442.022   -19180.174   -573.90938    -3967.005   -534.37276    72.397184    62.697801    36.119968    31235.038   -308525.09 
    1700    1626.5822     163953.6    72.397162    72.397163    36.119957          120    126074.36    131356.86    71313.545   -5154.5679   -4053.9414   -3250.7595    72.397162    62.697782    36.119957    109581.59   -308287.14 
    1710    1699.1833    163953.46    72.397142    72.397143    36.119947          120   -30324.289    -33132.45   -130677.95   -1056.9875   -2932.2484     -2575.85    72.397142    62.697765    36.119947   -64711.564   -308444.91 
    1720    1660.7537    163953.32    72.397122    72.397123    36.119937          120   -36416.712   -41645.869   -143168.46    585.27365   -1352.9818    212.19561    72.397122    62.697747    36.119937   -73743.681      -308357 
    1730    1641.6599    163953.18    72.397101    72.397102    36.119926          120    123870.71    128519.89    61711.031   -3943.6165   -2747.3547   -1161.9107    72.397101    62.697729    36.119926    104700.54   -308311.38 
    1740    1705.3088    163953.05    72.397082    72.397082    36.119917          120     65409.48    68562.819   -10030.596   -3888.1656   -3457.6097   -3693.3416    72.397082    62.697713    36.119917    41313.901   -308449.11 
    1750    1605.2777    163952.93    72.397064    72.397064    36.119908          120   -72044.728   -77430.635   -187294.54   -1119.0275   -1128.3158   -1338.8619    72.397064    62.697697    36.119908   -112256.63   -308224.58 
    1760    1697.1327    163952.79    72.397044    72.397045    36.119898          120     46444.74    46156.823   -41444.166   -2835.5725   -632.79907    1529.0328    72.397044     62.69768    36.119898    17052.466   -308425.68 
    1770    1626.3211    163952.67    72.397026    72.397026    36.119889          120    133849.46    139375.48    71762.026   -3440.0901   -2079.5053    -1439.185    72.397026    62.697664    36.119889    114995.66   -308263.39 
    1780    1666.0056    163952.55    72.397009    72.397009     36.11988          120   -16603.905   -17039.952   -115523.12   -2301.2261   -2029.7593   -2364.0256    72.397009     62.69765     36.11988   -49722.326   -308349.97 
    1790    1647.0421    163952.44    72.396992    72.396993    36.119872          120   -44638.471   -48336.861      -154028    -3377.232   -721.06063    2078.2388    72.396992    62.697635    36.119872   -82334.445    -308303.9 
    1800      1644.34    163952.32    72.396975    72.396975    36.119863          120    119989.55    123138.65    51129.894   -2876.7891   -298.85693     1250.488    72.396975     62.69762    36.119863    98086.033   -308292.82 
    1810    1689.2312    163952.22    72.396959     72.39696    36.119856          120    83031.779    86681.201    7265.7492   -1153.3375   -1049.9422   -1348.8511    72.396959    62.697607    36.119856     58992.91   -308390.15 
    1820    1610.6156    163952.12    72.396945    72.396946    36.119849          120   -69459.956   -71606.929   -181375.07   -2690.1604   -815.44291    1820.0198    72.396945    62.697594    36.119849   -107480.65   -308210.42 
    1830    1728.0693    163952.02     72.39693    72.396931    36.119841          120    34202.919    34369.667   -53623.259   -3400.5411    161.58848    2222.1249     72.39693    62.697582    36.119841    4983.1093   -308467.71 
    1840    1618.1875    163951.93    72.396916    72.396917    36.119834          120    141348.75    145641.91    80315.971   -427.72884   -638.76165   -708.16031    72.396916    62.697569    36.119834    122435.54   -308219.45 
    1850    1719.4511    163951.85    72.396905    72.396905    36.119829          120   -2122.4596   -1699.7783   -96940.947   -146.80164   -710.81044    1639.8486    72.396905    62.697559    36.119829   -33587.728    -308440.2 
    1860    1672.0875    163951.77    72.396894    72.396894    36.119823          120   -53586.929    -53816.05   -159190.56     -2385.23    915.15164    3018.5681    72.396894     62.69755    36.119823   -88864.514    -308330.8 
    1870    1675.6007    163951.69    72.396882    72.396883    36.119817          120    112895.79    116430.52    49453.141   -805.07356   -32.387134   -1031.8161    72.396882     62.69754    36.119817    92926.481   -308334.79 
    1880    1739.5154    163951.63    72.396873    72.396873    36.119812          120    95967.986    97870.336    28702.798    851.38201   -2090.3494    203.85651    72.396873    62.697531    36.119812    74180.373   -308471.92 
    1890     1644.074    163951.58    72.396865    72.396866    36.119809          120   -64789.335   -63986.597   -170809.93   -495.26926    554.14943    3414.7537    72.396865    62.697525    36.119809   -99861.955   -308256.01 
    1900    1760.2042    163951.52    72.396857    72.396858    36.119805          120    20896.999    24348.841   -60369.336   -266.93476    2609.5674   -412.60125    72.396857    62.697518    36.119805   -5041.1651   -308511.48 
    1910    1647.9982    163951.48     72.39685    72.396851    36.119801          120     142008.3    144086.43    93016.933    753.55991   -2277.8291   -1192.4138     72.39685    62.697512    36.119801    126370.56   -308255.74 
    1920     1759.293    163951.45    72.396846    72.396847    36.119799          120    12411.072    13736.657   -69941.231   -39.532907   -2120.3432    1882.7656    72.396846    62.697508    36.119799   -14597.834   -308501.71 
    1930    1655.4085    163951.43    72.396843    72.396843    36.119798          120   -61726.989   -55821.952    -158603.9    771.47168    4014.7647    804.25549    72.396843    62.697506    36.119798   -92050.948   -308266.61 
    1940    1732.9623     163951.4     72.39684     72.39684    36.119796          120    102671.95    105991.92    50197.004     1605.085    568.15465   -582.56325     72.39684    62.697503    36.119796    86286.959   -308434.56 
    1950     1709.471     163951.4    72.396839     72.39684    36.119796          120    107790.79    108119.97    55945.857    245.64379   -3676.9916      325.913    72.396839    62.697502    36.119796    90618.874   -308379.75 
    1960    1669.6749    163951.41    72.396841    72.396841    36.119797          120    -60097.52   -53359.112   -149902.61    451.80436    1369.0629    1025.4075    72.396841    62.697504    36.119797   -87786.414   -308287.62 
    1970    1764.9374    163951.43    72.396843    72.396844    36.119798          120    4778.0484    12540.308    -64196.92    2653.8213    2924.4444    1511.2463    72.396843    62.697506    36.119798   -15626.188   -308495.35 
    1980      1641.86    163951.45    72.396847    72.396847    36.119799          120    143857.47    145122.43    107030.12    2069.9276   -2828.3347    496.59095    72.396847    62.697509    36.119799    132003.34   -308218.14 
    1990    1774.3381     163951.5    72.396853    72.396854    36.119803          120    25562.769    28324.459   -38616.822   -95.989418     -2019.63    672.76129    72.396853    62.697515    36.119803    5090.1353   -308509.76 
    2000    1658.2567    163951.55    72.396862    72.396862    36.119807          120   -69831.244   -61116.775   -150061.35    1288.6392    1899.4932    3153.8754    72.396862    62.697522    36.119807   -93669.791   -308246.89 
    2010    1743.0664    163951.62    72.396871    72.396871    36.119811          120     92644.06    98189.897     50853.05    3644.8454   -1351.4347    2216.9399    72.396871     62.69753    36.119811    80562.336   -308433.67 
    2020    1697.9167     163951.7    72.396882    72.396883    36.119817          120    117627.92     118761.1    79524.289    2042.5973   -2870.0755    655.98563    72.396882     62.69754    36.119817    105304.44   -308328.32 
    2030    1701.7794     163951.8    72.396897    72.396898    36.119825          120   -50400.482    -47211.65   -125187.06   -1336.0208   -904.74129     3318.779    72.396897    62.697553    36.119825   -74266.398   -308333.88 
    2040    1723.2889    163951.91    72.396913    72.396914    36.119833          120   -6360.1741    722.04809   -65749.089    1292.1759   -1078.0137     3814.129    72.396913    62.697567    36.119833   -23795.738   -308379.34 
    2050    1666.3234    163952.03    72.396931    72.396932    36.119842          120    142006.09    146757.34    117273.97    5006.4672   -1232.5556     1127.211    72.396931    62.697582    36.119842     135345.8   -308247.88 
    2060    1751.0182    163952.17    72.396953    72.396953    36.119852          120    42350.487    42164.573   -8451.1843   -752.29747   -2285.5123     2477.027    72.396953    62.697601    36.119852    25354.625   -308433.77 
    2070    1641.0759    163952.34    72.396977    72.396977    36.119864          120   -66877.002   -63700.596   -140639.78   -3767.1484   -3123.6324      3444.72    72.396977    62.697622    36.119864   -90405.792   -308186.55 
    2080    1742.1147    163952.51    72.397002    72.397002    36.119877          120    81004.831    88722.647    47872.994    3940.3488    16.861019    1624.6692    72.397002    62.697643    36.119877    72533.491   -308406.89 
    2090    1681.1748     163952.7     72.39703    72.397031    36.119891          120    127173.92     131399.9    104353.44    2724.1131   -1035.2731     1983.496     72.39703    62.697668    36.119891    120975.75   -308267.71 
    2100    1693.5082    163952.92    72.397063    72.397063    36.119907          120   -35928.993   -36149.795   -101737.61   -5759.2957    -5062.084     1729.669    72.397063    62.697696    36.119907     -57938.8   -308292.18 
    2110    1728.9609    163953.15    72.397097    72.397097    36.119924          120   -15053.413   -10426.151   -71531.528   -1441.2423   -1904.9838    925.34705    72.397097    62.697726    36.119924   -32337.031    -308366.2 
    2120    1669.1572     163953.4    72.397133    72.397134    36.119942          120    138590.62    148613.28     126290.1     4102.819    844.15418    2097.6336    72.397133    62.697757    36.119942    137831.33   -308229.58 
    2130    1749.5866    163953.68    72.397174    72.397174    36.119963          120    56676.512    60448.532    20310.656   -2474.6291   -3541.8556    878.99909    72.397174    62.697792    36.119963      45811.9   -308404.99 
    2140    1667.1574    163953.97    72.397218    72.397218    36.119985          120   -64335.535   -65804.074   -135274.94    -5690.755   -5458.8523   -882.86249    72.397218     62.69783    36.119985   -88471.515   -308216.52 
    2150    1745.2178    163954.28    72.397263    72.397264    36.120007          120    71078.326    78844.908    42799.537    956.52797   -368.88409    1634.3298    72.397263     62.69787    36.120007    64240.924   -308387.38 
    2160    1692.6393    163954.62    72.397313    72.397313    36.120032          120    132451.14     143142.6    123144.63    1348.0398   -113.07075    1314.8357    72.397313    62.697912    36.120032    132912.79   -308265.89 
    2170    1721.1326    163954.98    72.397366    72.397367    36.120059          120   -24103.186   -26098.699   -83746.166   -3927.7224   -5113.1231   -1574.9278    72.397366    62.697959    36.120059    -44649.35      -308325 
    2180    1731.7791    163955.36    72.397422    72.397423    36.120087          120   -20699.865   -22192.389   -77858.258   -3220.3716   -4420.1916   -175.34258    72.397422    62.698007    36.120087   -40250.171   -308346.48 
    2190    1680.2805    163955.76     72.39748    72.397481    36.120116          120     132718.8    143411.42    126061.13    407.97778    134.83241    1940.0501     72.39748    62.698058    36.120116    134063.78   -308226.77 
    2200    1780.8843    163956.18    72.397543    72.397544    36.120147          120    69871.136    74248.967    40273.673    390.64085   -1187.8828   -196.01249    72.397543    62.698112    36.120147    61464.592   -308446.73 
    2210    1649.7774    163956.64     72.39761     72.39761     36.12018          120    -60452.87   -66921.418   -132130.34   -2328.7061   -5404.4343   -2029.1797     72.39761     62.69817     36.12018   -86501.542   -308152.63 
    2220    1774.9425     163957.1    72.397678    72.397678    36.120214          120    59739.494    62357.626    29697.911   -2876.1649   -2969.4736    1179.4523    72.397678    62.698229    36.120214    50598.343   -308426.91 
    2230    1681.6852    163957.59     72.39775     72.39775     36.12025          120    138007.15    146419.07    130694.71    163.07847   -39.446999    2088.0742     72.39775    62.698291     36.12025    138373.64   -308215.07 
    2240    1726.3518     163958.1    72.397826    72.397826    36.120288          120   -11157.073   -13237.236   -67406.896    1678.0005   -3239.3588   -1419.0747    72.397826    62.698357    36.120288   -30600.402   -308312.64 
    2250    1719.2854    163958.64    72.397905    72.397905    36.120327          120   -30599.198   -35583.206   -90974.756   -2131.2098   -4622.5503    -1258.846    72.397905    62.698425    36.120327    -52385.72   -308292.36 
    2260    1691.0054    163959.19    72.397986    72.397986    36.120368          120     128321.3    134652.57    116913.63   -3105.3451   -1451.6266    2556.5101    72.397986    62.698495    36.120368    126629.17   -308225.31 
    2270    1760.5873    163959.77    72.398071    72.398072     36.12041          120    83457.725    87536.296    57139.018    1394.5697   -1706.7153    1150.5338    72.398071    62.698569     36.12041    76044.346   -308377.49 
    2280    1660.1026    163960.38     72.39816    72.398161    36.120455          120   -60283.963   -67616.925   -131307.95    1806.8182   -4029.2383   -2466.2603     72.39816    62.698647    36.120455   -86402.946   -308148.65 
    2290    1791.9812    163960.99    72.398251    72.398252      36.1205          120    48516.534    48580.728    9224.5482   -3635.7127   -2997.8132    27.975482    72.398251    62.698725      36.1205    35440.603   -308438.89 
    2300    1661.9567    163961.63    72.398345    72.398346    36.120547          120    142448.13    149772.37     132750.4   -2533.0871   -1775.8462    2160.3603    72.398345    62.698807    36.120547    141656.96   -308144.95 
    2310    1783.5116    163962.31    72.398444    72.398445    36.120596          120   -624.16963   -4628.7087   -53151.435    2003.0767    -3403.197   -1578.4753    72.398444    62.698892    36.120596   -19468.104   -308411.26 
    2320    1703.7767    163962.99    72.398545    72.398546    36.120647          120   -38440.874   -45861.333   -108561.82   -413.09784   -3748.2748   -2964.2902    72.398545     62.69898    36.120647   -64288.008   -308230.78 
    2330    1733.1256    163963.69    72.398648    72.398649    36.120698          120    121988.33     127368.3    101070.99   -4163.2151   -2353.8827    711.88936    72.398648    62.699069    36.120698    116809.21   -308292.07 
    2340    1770.4016    163964.42    72.398755    72.398756    36.120752          120    92567.584    95251.507    67666.415   -2209.2791   -3548.1852    132.34624    72.398755    62.699162    36.120752    85161.836   -308370.38 
    2350    1688.3613    163965.17    72.398866    72.398867    36.120807          120   -55627.853   -65353.589    -132238.8    653.28383    -4512.003   -3655.8019    72.398866    62.699258    36.120807   -84406.749   -308185.31 
    2360    1791.5377    163965.94    72.398979    72.398979    36.120863          120    36334.816    34032.372   -17333.658   -1599.0609   -2318.6176   -2092.6923    72.398979    62.699355    36.120863    17677.843   -308411.32 
    2370    1692.4795    163966.72    72.399094    72.399094    36.120921          120    142647.31    149211.85    128733.36   -4586.6695   -3748.4194    979.13029    72.399094    62.699455    36.120921    140197.51   -308185.74 
    2380    1785.2171    163967.53    72.399213    72.399213     36.12098          120    10170.811    7629.7205   -43493.893   -2487.2265   -6138.4106   -1885.3983    72.399213    62.699558     36.12098   -8564.4539   -308390.51 
    2390    1703.4823    163968.35    72.399334    72.399335    36.121041          120   -47011.706   -54973.748   -127896.39    799.75419   -2793.0679   -4022.5417    72.399334    62.699664    36.121041   -76627.281   -308204.05 
    2400     1771.278    163969.19    72.399457    72.399458    36.121102          120    111888.99    113742.17    81170.229   -2580.3517   -2746.5637   -383.12808    72.399457     62.69977    36.121102    102267.13   -308350.65 
    2410    1748.8037    163970.05    72.399584    72.399584    36.121165          120    100412.74    105322.23    73357.647   -4919.9509   -6790.6052   -624.08023    72.399584    62.699879    36.121165     93030.87   -308297.45 
    2420    1731.4619    163970.93    72.399714    72.399714     36.12123          120   -56782.821   -59867.511   -135477.78   -404.38501   -4717.1667   -3639.7265    72.399714    62.699992     36.12123   -84042.705    -308254.5 
    2430    1801.9045    163971.82    72.399844    72.399845    36.121295          120    19488.972    15140.667   -42695.281    605.19916   -1413.6654     -1983.58    72.399844    62.700105    36.121295   -2688.5473    -308407.2 
    2440    1713.4779    163972.72    72.399977    72.399978    36.121361          120    142192.87    145815.96     121000.7    -4336.238   -5176.3856   -1155.8824    72.399977     62.70022    36.121361    136336.51   -308207.06 
    2450    1814.3625    163973.65    72.400114    72.400114    36.121429          120    15689.391    20024.688   -39543.616   -2839.8489   -6143.0226   -2525.1272    72.400114    62.700338    36.121429   -1276.5123    -308427.2 
    2460    1734.9017    163974.59    72.400252    72.400253    36.121498          120   -60316.058   -62731.603   -143134.87    1530.7679   -2258.6864   -1606.4799    72.400252    62.700458    36.121498   -88727.509   -308247.09 
    2470    1779.0988    163975.53    72.400391    72.400391    36.121568          120    99066.864    97565.033    59779.199   -2254.4197   -3387.9171   -1354.1662    72.400391    62.700578    36.121568    85470.366   -308342.42 
    2480    1783.4792     163976.5    72.400533    72.400533    36.121638          120    107427.37    111520.34    73335.955   -4284.9351   -5621.5911   -2697.1647    72.400533    62.700701    36.121638    97427.889   -308347.23 
    2490    1742.1124    163977.48    72.400677    72.400678    36.121711          120   -57273.648   -52734.178   -136802.88    196.11262   -4267.9096   -1269.3256    72.400677    62.700826    36.121711   -82270.235   -308252.54 
    2500    1801.3638    163978.46    72.400822    72.400823    36.121783          120    1371.9393   -162.42437   -65568.682   -348.12808   -3431.8822    172.79807    72.400822    62.700952    36.121783   -21453.056   -308381.13 
    2510    1730.1918    163979.46    72.400969    72.400969    36.121856          120    140095.82    138592.55    108559.42   -4399.1103   -4124.4029   -2346.4584    72.400969    62.701079    36.121856    129082.59   -308217.66 
    2520    1810.4702    163980.48    72.401118    72.401119    36.121931          120    27518.235     33180.43   -32234.536   -2021.5756   -4462.4796   -2670.5644    72.401118    62.701208    36.121931     9488.043   -308394.19 
    2530     1718.591     163981.5    72.401269     72.40127    36.122006          120   -71232.428   -65551.568   -155776.84    567.31952   -4465.2415     972.1838    72.401269    62.701339    36.122006   -97520.277   -308186.82 
    2540    1793.9649    163982.53    72.401421    72.401421    36.122082          120    85925.367    81781.018    37420.893   -3188.6975   -2976.3305    72.174896    72.401421     62.70147    36.122082    68375.759   -308350.08 
    2550    1756.3019    163983.57    72.401574    72.401575    36.122158          120    119122.77    117792.41    77190.893    -3691.138   -2800.1046   -2718.5295    72.401574    62.701603    36.122158    104702.03   -308263.62 
    2560    1736.6731    163984.63     72.40173    72.401731    36.122236          120   -52166.965   -42405.991   -135127.22     314.1156   -3817.5218   -1192.5163     72.40173    62.701738    36.122236   -76566.726   -308216.38 
    2570    1807.5779     163985.7    72.401887    72.401887    36.122314          120   -14408.243   -12362.087   -88334.159   -804.09618   -2682.8835    1329.7217    72.401887    62.701874    36.122314   -38368.163   -308370.63 
    2580    1700.9083    163986.76    72.402044    72.402044    36.122392          120    140191.93    133021.58    100045.06   -3487.5994   -1732.6365   -196.16326    72.402044     62.70201    36.122392    124419.52   -308130.12 
    2590     1825.889    163987.85    72.402204    72.402205    36.122472          120    42564.648    45863.524   -22284.958   -1176.9157   -2065.6586   -1703.1452    72.402204    62.702149    36.122472    22047.738   -308404.88 
    2600    1702.9406    163988.95    72.402366    72.402366    36.122553          120   -77078.009   -66925.918   -167785.79    1499.3565   -2389.7898    -812.7372    72.402366    62.702288    36.122553    -103929.9   -308127.15 
    2610    1800.1241    163990.05    72.402527    72.402528    36.122633          120     74772.86    71697.719    18307.767   -1443.2165   -1657.5671    748.74472    72.402527    62.702428    36.122633    54926.116   -308341.01 
    2620    1736.8367    163991.16     72.40269    72.402691    36.122715          120    127593.16    123157.11    79996.878   -3049.2395   -1416.0023    1050.4731     72.40269     62.70257    36.122715    110249.05   -308195.36 
    2630    1760.5696    163992.28    72.402856    72.402857    36.122798          120    -42564.31   -34721.274   -126798.79    834.39358   -2449.3056   -992.13902    72.402856    62.702713    36.122798   -68028.124   -308245.18 
    2640    1769.7945    163993.41    72.403022    72.403023    36.122881          120   -26862.786   -21003.409   -106610.33    1806.1136   -3007.3057   -923.53415    72.403022    62.702857    36.122881   -51492.174      -308263 
    2650     1720.182    163994.55    72.403189     72.40319    36.122964          120    135524.05    132672.41    86955.902    -2821.942    -1001.141    2245.8606    72.403189    62.703002    36.122964    118384.12   -308147.25 
    2660    1816.0453     163995.7    72.403359    72.403359    36.123048          120    56717.356    57740.842   -7599.8037   -2382.8661   -1462.7186    1161.3878    72.403359    62.703148    36.123048    35619.465   -308357.93 
    2670    1683.6622    163996.86     72.40353     72.40353    36.123134          120   -76360.765   -69071.467   -167465.76    2309.1655   -5481.8931    -1276.729     72.40353    62.703297    36.123134   -104299.33   -308060.42 
    2680    1823.2641    163998.02      72.4037    72.403701    36.123219          120      61585.7    65156.981   -5063.3871    161.78613   -3117.8839    1665.2612      72.4037    62.703445    36.123219    40559.765   -308366.64 
    2690    1711.5402    163999.19    72.403873    72.403874    36.123305          120    133381.51    134873.75    83374.573   -3485.2444    969.44243    2612.3672    72.403873    62.703594    36.123305    117209.94   -308114.22 
    2700     1781.854    164000.38    72.404048    72.404049    36.123393          120   -28626.791   -24900.038   -109050.28   -654.34699   -4161.7042    -163.7905    72.404048    62.703746    36.123393   -54192.369   -308268.36 
    2710    1759.9769    164001.58    72.404224    72.404225     36.12348          120   -35203.667   -31079.986   -123752.69    2539.3892   -7302.3808    686.26001    72.404224    62.703898     36.12348   -63345.447   -308214.86 
    2720    1747.6962    164002.78    72.404401    72.404401    36.123568          120    130570.81    135487.21    77811.677    -1477.387    529.38209     3263.848    72.404401    62.704051    36.123568    114623.23   -308183.76 
    2730    1801.8348       164004     72.40458     72.40458    36.123658          120     69285.17     74096.09    11686.625   -2949.9175     677.7468    1666.0597     72.40458    62.704206    36.123658    51689.295   -308300.41 
    2740    1727.0145    164005.23    72.404761    72.404762    36.123748          120    -71270.28   -69168.496    -164509.6    1839.0493   -6938.0251   -716.24978    72.404761    62.704363    36.123748   -101649.46   -308129.37 
    2750    1820.9872    164006.46    72.404942    72.404943    36.123839          120    51833.638    55405.216   -20664.163    1630.5245   -3477.9068    2065.3754    72.404942     62.70452    36.123839     28858.23   -308335.87 
    2760    1732.6843     164007.7    72.405126    72.405126     36.12393          120    137422.24    144463.84    93894.742   -2964.6874    3281.0948    4049.3646    72.405126    62.704679     36.12393    125260.27   -308134.29 
    2770    1815.1719    164008.97    72.405312    72.405312    36.124023          120   -16391.593   -11931.708   -90539.491   -935.45415   -1434.3123    41.627581    72.405312     62.70484    36.124023    -39620.93   -308314.17 
    2780    1758.5225    164010.24    72.405499    72.405499    36.124116          120   -39897.646   -39184.549   -131276.44    3502.3649   -5303.3408   -374.06063    72.405499    62.705002    36.124116   -70119.545   -308185.08 
    2790    1777.3362    164011.52    72.405687    72.405687     36.12421          120    124834.22    129920.23    74214.522   -802.28154    1979.3904    4266.2807    72.405687    62.705165     36.12421    109656.32   -308222.21 
    2800    1811.7923    164012.82    72.405878    72.405878    36.124305          120    81561.184    89314.383    31906.014   -3460.4828    3190.0412     3379.735    72.405878     62.70533    36.124305     67593.86   -308294.94 
    2810      1735.34    164014.13    72.406071    72.406072    36.124402          120   -65518.185   -63693.401   -155087.95     1995.188   -3034.1066   -1431.8259    72.406071    62.705498    36.124402   -94766.514   -308122.75 
    2820    1824.7193    164015.45    72.406265    72.406265    36.124498          120    40473.292    41551.062   -31649.248    2311.9512   -412.12474    1804.2194    72.406265    62.705665    36.124498    16791.702   -308317.11 
    2830    1746.5648    164016.78    72.406461    72.406461    36.124596          120    142973.33    150315.88    102359.87   -3482.2473    4538.1614    5972.1275    72.406461    62.705835    36.124596    131883.02   -308138.95 
[...]
    9320    1963.3684    167245.95    72.878558    72.878558    36.360132          120   -57789.512   -49602.172   -124748.02    1446.9774    581.21646    5722.6925    72.878558    63.114683    36.360132   -77379.902   -307708.19 
    9330    2015.4714    167250.87    72.879272    72.879273    36.360488          120    72777.831    71324.983    19247.158   -2654.5454   -538.52227    -2253.241    72.879272    63.115302    36.360488    54449.991   -307824.62 
    9340    1990.6846    167255.79    72.879986    72.879986    36.360844          120    86378.055    82152.087    33063.051   -4009.1367   -214.87733   -2602.1465    72.879986     63.11592    36.360844    67197.731   -307770.32 
    9350    1985.1321     167260.7    72.880699    72.880699      36.3612          120   -47604.199   -43042.547   -114819.44    835.11374     1090.621    5923.0851    72.880699    63.116537      36.3612    -68488.73    -307760.2 
    9360    2004.2891    167265.59    72.881409     72.88141    36.361555          120   -6608.1875   -2798.1103   -69131.873    446.22141    343.34215    2765.0243    72.881409    63.117153    36.361555    -26179.39    -307803.8 
    9370    1970.5876    167270.47    72.882118    72.882119    36.361908          120    107849.74    105555.22    61834.811   -5423.0406   -740.61952   -4206.5542    72.882118    63.117766    36.361908    91746.593   -307729.46 
    9380    2013.5505    167275.35    72.882826    72.882827    36.362262          120    21108.178     22497.27   -35117.092   -2669.0526    758.82961    1439.4632    72.882826     63.11838    36.362262    2829.4518   -307826.76 
    9390    1961.8302    167280.21    72.883533    72.883534    36.362614          120   -58395.995   -54430.186   -129541.87    2409.9492    1232.1767    6691.8343    72.883533    63.118992    36.362614   -80789.352   -307712.12 
    9400    2015.8687    167285.06    72.884238    72.884238    36.362966          120    61613.837    61928.755    10222.337   -3349.8836   -989.80683   -925.29226    72.884238    63.119602    36.362966     44588.31   -307833.62 
    9410    1973.8843    167289.91    72.884941    72.884942    36.363317          120    88362.302    90265.935    45622.993   -5685.5805    179.22987   -2648.1416    72.884941    63.120211    36.363317     74750.41   -307741.11 
    9420    2000.8589    167294.75    72.885644    72.885645    36.363667          120    -39595.33   -36082.832   -108146.67    431.16375    2083.0682    5082.9705    72.885644     63.12082    36.363667   -61274.945   -307802.58 
    9430    1989.4133    167299.57    72.886345    72.886345    36.364017          120   -15216.038   -13802.739   -80374.443   -13.189114   -667.29922    4121.5273    72.886345    63.121427    36.364017   -36464.407   -307778.48 
    9440    1979.9891    167304.38    72.887044    72.887044    36.364366          120    102385.98    103947.97    63020.026   -5561.2464   -1476.2218   -2237.9146    72.887044    63.122032    36.364366    89784.658   -307758.32 
    9450    2008.4889    167309.19    72.887742    72.887743    36.364714          120    30551.737    34734.819   -23338.875   -3028.4323    2737.8834    1067.9156    72.887742    63.122637    36.364714     13982.56   -307822.51 
    9460    1966.4289       167314    72.888439     72.88844    36.365062          120   -59076.576   -55173.239   -130268.92    1037.4144    1530.4889    5683.6434    72.888439    63.123241    36.365062   -81506.246   -307730.89 
    9470    2004.7211    167318.78    72.889134    72.889135    36.365409          120    51474.453    52005.322    1059.1657   -2752.7962   -3300.1472    1457.4598    72.889134    63.123842    36.365409    34846.314   -307817.24 
    9480     1981.172    167323.56    72.889828    72.889828    36.365755          120    95105.932    96737.378    53043.224   -5472.2712    179.22465   -365.87142    72.889828    63.124443    36.365755    81628.845   -307765.19 
    9490      1991.03    167328.33    72.890521    72.890522    36.366101          120   -33838.581   -26808.526   -95408.912   -67.778169    4710.7837    4115.6829    72.890521    63.125044    36.366101   -52018.673   -307788.73 
    9500    1988.7081     167333.1    72.891213    72.891213    36.366446          120   -24965.494   -22071.515   -86663.697    746.72103   -1106.0895     4794.198    72.891213    63.125643    36.366446   -44566.902    -307784.5 
    9510    1984.6025    167337.85    72.891903    72.891903     36.36679          120    102736.36    99353.279    57324.091   -5705.7346   -3726.5394    1013.7368    72.891903     63.12624     36.36679    86471.243   -307775.44 
    9520     2002.994    167342.59    72.892592    72.892593    36.367134          120    41588.867    46026.093   -8863.3493   -3110.5211    3271.7584    1185.6222    72.892592    63.126837    36.367134    26250.537   -307817.73 
    9530    1972.4903    167347.34     72.89328    72.893281    36.367477          120   -62927.258    -54080.41   -125354.34    2387.8156    3910.5681    4778.8056     72.89328    63.127433    36.367477   -80787.336    -307750.6 
    9540    2011.4991    167352.06    72.893967    72.893967     36.36782          120    44697.471    40303.408   -10959.418   -2877.0484   -3481.7996    3670.8325    72.893967    63.128027     36.36782    24680.487   -307838.39 
    9550    1982.9989    167356.78    72.894652    72.894652    36.368161          120    104586.14    100140.38    56860.631   -6275.1627   -1870.0331   -449.37328    72.894652    63.128621    36.368161    87195.715    -307775.4 
    9560    2005.7574     167361.5    72.895337    72.895337    36.368503          120   -25915.171   -17361.209   -84760.261    408.79958    4801.8335    954.82089    72.895337    63.129214    36.368503    -42678.88   -307826.63 
    9570    2004.6705     167366.2     72.89602    72.896021    36.368844          120   -32640.081    -29621.57   -95210.991    823.62675   -78.977002    4994.8555     72.89602    63.129806    36.368844   -52490.881   -307825.02 
    9580    1991.8611     167370.9    72.896701    72.896702    36.369184          120    100978.45    91690.016    50580.289   -6297.0145   -3907.0559     1756.101    72.896701    63.130396    36.369184    81082.919    -307796.9 
    9590    2030.8884    167375.59    72.897382    72.897383    36.369524          120    55125.519    54596.917    1017.1391    -3934.785    1838.4012   -2905.5864    72.897382    63.130986    36.369524    36913.192   -307884.39 
    9600    1979.7217    167380.27    72.898063    72.898063    36.369863          120   -60093.375   -51393.068   -126443.63     2362.378     1786.061    2325.8436    72.898063    63.131575    36.369863   -79310.023   -307771.88 
    9610    2028.9383    167384.95    72.898741    72.898741    36.370201          120    34198.778    30546.456   -21918.073   -2342.0963    -3512.677    5328.5223    72.898741    63.132162    36.370201     14275.72   -307882.75 
    9620    1984.0476    167389.61    72.899418    72.899418    36.370539          120    108668.37    101828.52    61084.341   -6885.5359    930.53839   -1342.8429    72.899418    63.132748    36.370539    90527.076   -307783.49 
    9630     2012.921    167394.27    72.900095    72.900095    36.370877          120    -11943.85   -7026.0116   -74652.248     254.5247    3271.8749   -3000.6868    72.900095    63.133335    36.370877    -31207.37   -307849.76 
    9640    1982.3698    167398.93     72.90077    72.900771    36.371214          120   -38207.787    -33648.08   -104145.75    1899.8999   -3355.3575    5083.7742     72.90077     63.13392    36.371214   -58667.207   -307783.52 
    9650    1991.2565    167403.57    72.901444    72.901444     36.37155          120    92432.841    88366.999    46662.666   -5765.3881    216.85858    3344.3379    72.901444    63.134503     36.37155    75820.835   -307804.03 
    9660    2001.0859    167408.21    72.902117    72.902118    36.371886          120    65770.498    65095.395    15903.108   -3316.7191     6038.826   -3921.7092    72.902117    63.135086    36.371886        48923   -307827.36 
    9670    1962.1819    167412.84    72.902791    72.902791    36.372222          120   -52254.905   -47969.753   -124631.26    2348.9149   -618.49918    392.33123    72.902791    63.135669    36.372222   -74951.973   -307742.21 
    9680    2014.8246    167417.47    72.903462    72.903462    36.372557          120    22634.692    24985.665   -34665.213   -2719.8906   -2454.5426    5196.7134    72.903462     63.13625    36.372557    4318.3811   -307860.12 
    9690    1955.0368    167422.08    72.904132    72.904132    36.372891          120    106232.39    107655.79    68187.513   -4781.0429    6504.2692   -624.74369    72.904132    63.136831    36.372891    94025.231    -307727.9 
    9700    2007.5349     167426.7    72.904802    72.904803    36.373226          120    1067.7152    519.58979   -61006.822    444.30589    4009.9965   -2786.8485    72.904802    63.137411    36.373226   -19806.506   -307846.18 
    9710    1955.0642    167431.31    72.905471    72.905472    36.373559          120   -41734.411       -38331   -114638.39    -392.8555   -2599.8164    2832.0132    72.905471    63.137991    36.373559   -64901.267    -307730.7 
    9720    1982.1451    167435.91    72.906138    72.906139    36.373892          120    80043.027    88948.368    39079.203   -4646.1627    3484.5971    1550.9904    72.906138    63.138568    36.373892    69356.866   -307792.75 
    9730    1968.7619     167440.5    72.906805    72.906806    36.374225          120      71296.1     72812.48    28850.027   -2017.3393    6439.4343   -1915.6944    72.906805    63.139146    36.374225    57652.869   -307763.84 
    9740     1958.167     167445.1    72.907472    72.907473    36.374558          120   -46159.811    -47595.12   -119855.88    905.37669    294.83132    -62.06016    72.907472    63.139724    36.374558   -71203.605   -307741.53 
    9750    1980.5634    167449.68    72.908137    72.908137    36.374889          120    8809.0037    19380.181   -49714.474   -3615.7785   -179.05675    1584.2865    72.908137    63.140299    36.374889   -7175.0964   -307792.41 
    9760    1955.5319    167454.25      72.9088    72.908801     36.37522          120    101350.19    109780.47    67910.316   -4129.7078    5603.8084   -239.27076      72.9088    63.140874     36.37522    93013.659   -307736.38 
    9770    1999.8188    167458.82    72.909464    72.909465    36.375552          120    9096.6132    6759.1991   -50253.295    358.21585    3204.1364   -928.29628    72.909464    63.141449    36.375552   -11465.828   -307835.42 
    9780    1957.8326    167463.39    72.910127    72.910127    36.375882          120    -48881.91   -43570.311   -122838.41   -957.66291   -1616.2651    -106.7829    72.910127    63.142022    36.375882   -71763.545   -307742.81 
    9790    2003.1147    167467.94    72.910787    72.910787    36.376211          120    67176.772    78171.774    26197.488   -4700.6048    2314.8252    521.58108    72.910787    63.142594    36.376211    57182.011   -307843.58 
    9800     1984.515    167472.48    72.911446    72.911447     36.37654          120     75811.47    78052.592    33050.669   -2323.2414    4787.2261    2.8887844    72.911446    63.143165     36.37654     62304.91   -307802.17 
    9810    1987.8606    167477.02    72.912106    72.912106    36.376869          120   -43905.503   -41708.461   -120465.47    1483.0074    -818.3301   -885.73135    72.912106    63.143736    36.376869   -68693.146    -307810.4 
    9820      2001.32    167481.55    72.912762    72.912763    36.377197          120   -5100.1101    4204.3887   -63693.673   -2072.5962   -842.16872   -325.18253    72.912762    63.144305    36.377197   -21529.798   -307840.58 
    9830    1982.7115    167486.07    72.913418    72.913418    36.377524          120    98323.867    104034.82    65752.269   -4587.8924    4553.2414    668.05449    72.913418    63.144873    36.377524    89370.318   -307799.71 
    9840    2006.6372    167490.58    72.914073    72.914073    36.377851          120    17877.828    20064.078    -46037.42    376.96997    1641.4238    413.67906    72.914073     63.14544    36.377851   -2698.5046   -307853.95 
    9850    1978.4642    167495.09    72.914726    72.914727    36.378177          120   -53369.849   -46441.096   -131138.17    2981.3468   -2478.6984   -1517.8856    72.914726    63.146006    36.378177   -76983.038   -307791.99 
    9860    1999.5012    167499.57    72.915378    72.915378    36.378502          120    57312.177     63824.65    18782.012   -3732.8918     1848.343   -684.43665    72.915378     63.14657    36.378502    46639.613    -307839.8 
    9870    1988.0061    167504.06    72.916028    72.916029    36.378826          120    82907.482    84752.166    40848.658   -4289.6387    3707.1671    1151.7969    72.916028    63.147134    36.378826    69502.769   -307814.73 
    9880    1985.2034    167508.54    72.916678    72.916679    36.379151          120   -37161.623   -33387.613    -117150.1    5216.1746   -888.65106   -917.21877    72.916678    63.147697    36.379151   -62566.447   -307809.62 
    9890    1995.3423       167513    72.917326    72.917327    36.379474          120   -12352.026   -5885.0783    -74488.72    2027.8274   -1379.7529   -2390.9501    72.917326    63.148258    36.379474   -30908.608   -307833.68 
    9900    1972.4317    167517.46    72.917973    72.917973    36.379797          120    97523.292    99932.515    65157.694    -7662.357    2713.6833    342.26127    72.917973    63.148818    36.379797    87537.833   -307783.12 
    9910    2007.6563    167521.91    72.918619     72.91862    36.380119          120    28339.503    28228.177   -29882.535    148.76329    2189.1269    425.14562    72.918619    63.149377    36.380119    8895.0486   -307862.34 
    9920     1962.644    167526.36    72.919264    72.919265    36.380441          120   -53081.404   -48593.649   -133347.37    7420.7055   -1247.7706   -2301.7426    72.919264    63.149936    36.380441   -78340.809   -307763.78 
    9930    1998.3407    167530.79    72.919907    72.919907    36.380762          120    51848.831      56337.8     3728.817   -3204.0277   -349.60768   -1065.7016    72.919907    63.150492    36.380762     37305.15   -307843.81 
    9940    1980.2692    167535.21    72.920549    72.920549    36.381082          120    89183.146    87709.676    51563.629   -6007.0832    2627.2764    1178.8029    72.920549    63.151048    36.381082     76152.15   -307803.77 
    9950    1975.8777    167539.64    72.921191    72.921191    36.381402          120   -31094.599   -29808.195   -102354.51    4023.4208      1205.81   -839.21203    72.921191    63.151604    36.381402     -54419.1   -307795.24 
    9960    1989.8706    167544.05     72.92183    72.921831    36.381721          120   -18690.151   -11538.861   -90109.129    4060.6208   -1469.2142   -2894.6854     72.92183    63.152158    36.381721   -40112.714   -307826.97 
    9970    1963.5766    167548.44    72.922468    72.922469     36.38204          120    97458.762    97064.287    57320.088   -4466.8891    152.17005    1042.8265    72.922468    63.152711     36.38204    83947.712   -307768.87 
    9980    2001.4939    167552.84    72.923106    72.923107    36.382358          120    37163.462    35066.175   -13015.435   -3049.2147     2172.047    1358.6846    72.923106    63.153263    36.382358    19738.067   -307854.27 
    9990    1953.0732    167557.23    72.923743    72.923744    36.382676          120   -57764.787   -48892.563   -133307.86    3452.5273   -52.465258   -3507.6456    72.923743    63.153815    36.382676   -79988.403   -307747.17 
   10000    2004.2149    167561.61    72.924378    72.924378    36.382992          120    44403.579    48818.681   -12751.422    840.26816   -820.65321   -941.00396    72.924378    63.154364    36.382992    26823.613    -307861.9 
Loop time of 4216.61 on 1 procs for 10000 steps with 16384 atoms

Performance: 0.020 ns/day, 1171.281 hours/ns, 2.372 timesteps/s
100.0% CPU use with 1 MPI tasks x no OpenMP threads

MPI task timing breakdown:
Section |  min time  |  avg time  |  max time  |%varavg| %total
---------------------------------------------------------------
Pair    | 3641.7     | 3641.7     | 3641.7     |   0.0 | 86.37
Bond    | 0.72503    | 0.72503    | 0.72503    |   0.0 |  0.02
Kspace  | 138.81     | 138.81     | 138.81     |   0.0 |  3.29
Neigh   | 352.93     | 352.93     | 352.93     |   0.0 |  8.37
Comm    | 4.0456     | 4.0456     | 4.0456     |   0.0 |  0.10
Output  | 0.13596    | 0.13596    | 0.13596    |   0.0 |  0.00
Modify  | 76.995     | 76.995     | 76.995     |   0.0 |  1.83
Other   |            | 1.24       |            |       |  0.03

Nlocal:    16384 ave 16384 max 16384 min
Histogram: 1 0 0 0 0 0 0 0 0 0
Nghost:    50670 ave 50670 max 50670 min
Histogram: 1 0 0 0 0 0 0 0 0 0
Neighs:    1.19888e+07 ave 1.19888e+07 max 1.19888e+07 min
Histogram: 1 0 0 0 0 0 0 0 0 0

Total # of neighbors = 11988752
Ave neighs/atom = 731.735
Ave special neighs/atom = 0.1875
Neighbor list builds = 899
Dangerous builds = ttthermo		0
reset_timestep	0
fix		2 all ave/time 1 1 500 c_thermo_temp c_thermo_pe c_thermo_press v_myVol v_myCella v_myCellb v_myCellc v_myCellgamma file data/current_run/cp_rawTemp${probeTemp}.dat # Potential energy, parameters, volume
fix		2 all ave/time 1 1 500 c_thermo_temp c_thermo_pe c_thermo_press v_myVol v_myCella v_myCellb v_myCellc v_myCellgamma file data/current_run/cp_rawTemp2000.dat 
run 		100000
PPPM initialization ...
  using 12-bit tables for long-range coulomb (../kspace.cpp:321)
  G vector (1/distance) = 0.20216
  grid = 36 50 24
  stencil order = 5
  estimated absolute RMS force accuracy = 0.000986985
  estimated relative force accuracy = 6.85423e-05
  using double precision FFTs
  3d grid and FFT values/proc = 65395 43200
Per MPI rank memory allocation (min/avg/max) = 185.4 | 185.4 | 185.4 Mbytes
Step Temp Volume Cella Cellb Cellc CellGamma Pxx Pyy Pzz Pxy Pxz Pyz Lx Ly Lz Press PotEng 
       0    2004.2149    167561.61    72.924378    72.924378    36.382992          120    44400.203    48815.367   -12751.795    840.42118   -820.64021   -940.92009    72.924378    63.154364    36.382992    26821.258   -307861.94 
  100000    1986.2754    170432.12    73.338446    73.338447    36.589577          120     19903.57    22353.427   -31114.143    36.619814    1568.5181   -3785.3031    73.338446    63.512958    36.589577    3714.2846   -307837.23 
Loop time of 40697.4 on 1 procs for 100000 steps with 16384 atoms

Performance: 0.021 ns/day, 1130.485 hours/ns, 2.457 timesteps/s
98.5% CPU use with 1 MPI tasks x no OpenMP threads

MPI task timing breakdown:
Section |  min time  |  avg time  |  max time  |%varavg| %total
---------------------------------------------------------------
Pair    | 34523      | 34523      | 34523      |   0.0 | 84.83
Bond    | 7.261      | 7.261      | 7.261      |   0.0 |  0.02
Kspace  | 1688       | 1688       | 1688       |   0.0 |  4.15
Neigh   | 3655.2     | 3655.2     | 3655.2     |   0.0 |  8.98
Comm    | 40.501     | 40.501     | 40.501     |   0.0 |  0.10
Output  | 0.00012898 | 0.00012898 | 0.00012898 |   0.0 |  0.00
Modify  | 770.93     | 770.93     | 770.93     |   0.0 |  1.89
Other   |            | 12.33      |            |       |  0.03

Nlocal:    16384 ave 16384 max 16384 min
Histogram: 1 0 0 0 0 0 0 0 0 0
Nghost:    50209 ave 50209 max 50209 min
Histogram: 1 0 0 0 0 0 0 0 0 0
Neighs:    1.17839e+07 ave 1.17839e+07 max 1.17839e+07 min
Histogram: 1 0 0 0 0 0 0 0 0 0

Total # of neighbors = 11783874
Ave neighs/atom = 719.231
Ave special neighs/atom = 0.1875
Neighbor list builds = 9335
Dangerous builds = 0
unfix		2
variable	probeTemp delete

print		" "
 
print		"All done!"
All done!
Total wall time: 12:30:53

