LAMMPS (16 Mar 2018)
  using 1 OpenMP thread(s) per MPI task
# Find minimum energy for Beryl

#----- Initialize Simulation -----
clear
  using 1 OpenMP thread(s) per MPI task
units 		metal
boundary 	p p p
atom_style 	full
variable	etol equal 1e-25
variable 	ftol equal 1e-25
variable 	maxiter equal 5000
variable 	maxeval equal 10000

#----- Create Atoms -----
read_data 	beryl_water_025.mod
  triclinic box = (0 0 0) to (9.208 7.97436 18.376) with tilt (-4.604 0 0)
  1 by 1 by 1 MPI processor grid
  reading atoms ...
  119 atoms
  scanning bonds ...
  2 = max bonds/atom
  scanning angles ...
  1 = max angles/atom
  reading bonds ...
  2 bonds
  reading angles ...
  1 angles
  2 = max # of 1-2 neighbors
  1 = max # of 1-3 neighbors
  1 = max # of 1-4 neighbors
  2 = max # of special neighbors
replicate 	1  1  1
  triclinic box = (0 0 0) to (9.208 7.97436 18.376) with tilt (-4.604 0 0)
  1 by 1 by 1 MPI processor grid
  119 atoms
  2 bonds
  1 angles
  2 = max # of 1-2 neighbors
  1 = max # of 1-3 neighbors
  1 = max # of 1-4 neighbors
  2 = max # of special neighbors
  Time spent = 0.000423908 secs

#----- Define Interatomic Potential -----
include		potential_main.mod
kspace_style 	pppm/tip4p 1.0e-4

# Neighbor Style
neighbor	0.3 bin
neigh_modify	delay 0 every 1 check yes

# Minimization style
min_style	cg

# Setup Output
thermo		10
thermo_style	custom	step temp vol cella cellb cellc cellgamma pxx pyy pzz pxy pxz pyz lx ly lz press pe #c_eatoms
thermo_modify	norm no
variable 	myVol equal vol
variable	myCella equal cella
variable	myCellb equal cellb
variable	myCellc equal cellc
variable	myCellgamma equal cellgamma
include 	potential_beryl.mod
# Potential Paramters
pair_style 	hybrid/overlay morse 5.5 buck 5.5 lj/cut/coul/long 5.5 8.5 lj/cut/tip4p/long 5 6 1 1 0.1546 8.5
pair_coeff    1    1 morse     		  0 	       0           0  # Be Be
pair_coeff    1    1 buck                 0            1           -201.0
pair_coeff    1    1 lj/cut/coul/long	  10120.	0.413
pair_coeff    1    2 morse     		  0 	       0           0  # Be Al
pair_coeff    1    2 buck                 0            1           0
pair_coeff    1    2 lj/cut/coul/long	  0	       0
pair_coeff    1    3 morse     		  0 	       0           0  # Al Si
pair_coeff    1    3 buck                 0            1           0
pair_coeff    1    3 lj/cut/coul/long	  0	       0
pair_coeff    1    4 morse 		  0.239919     2.527420    1.815405	#Be O
pair_coeff    1    4 buck                 0.000000     1.000000   -46.00000
pair_coeff    1    4 lj/cut/coul/long     529.000      0.528
pair_coeff    2    2 morse     		  0 	       0           0  # Al Al
pair_coeff    2    2 buck                 0            1           -492.
pair_coeff    2    2 lj/cut/coul/long	  60423		0.356
pair_coeff    2    3 morse     		  0 	       0           0  # Al si
pair_coeff    2    3 buck                 0            1           0
pair_coeff    2    3 lj/cut/coul/long	  0	       0
pair_coeff    2    4 morse 		  0.361581     1.900442    2.164818	#Al O
pair_coeff    2    4 buck                 0.000000     1.000000   -71.5
pair_coeff    2    4 lj/cut/coul/long     1420.0	0.482
pair_coeff    3    3 morse     		  0 	       0           0  # Si Si
pair_coeff    3    3 buck                 0            1           -282.
pair_coeff    3    3 lj/cut/coul/long	  19730		0.391
pair_coeff    3    4 morse 		  0.340554     2.006700    2.100000	#Si O
pair_coeff    3    4 buck                 0.000000     1.000000   -60.5
pair_coeff    3    4 lj/cut/coul/long     916.		0.504
pair_coeff    4    4 morse     		  0.042395     1.379316    3.618701  # O O
pair_coeff    4    4 buck                 0.000000     1.000000   -16.7
pair_coeff    4    4 lj/cut/coul/long	  3.16		1.05
include 	potential_water.mod
# Potential Paramters

pair_coeff    1    5 morse     		  0. 	       0.           0.  	# Ow Be
pair_coeff    1    5 buck                 0            1           -354.5
pair_coeff    1    5 lj/cut/tip4p/long	  39.637	1.1435
pair_coeff    2    5 morse     		  0 	       0           0  		# Ow Al
pair_coeff    2    5 buck                 0            1           -554.6
pair_coeff    2    5 lj/cut/tip4p/long	  96.854	1.0616
pair_coeff    3    5 morse     		  0 	       0           0  		# Ow Si
pair_coeff    3    5 buck                 0            1           -419.9
pair_coeff    3    5 lj/cut/tip4p/long	  55.345	1.1126
pair_coeff    4    5 morse     		  0 	       0           0  		# Ow O
pair_coeff    4    5 buck                 0            1           -102.9
pair_coeff    4    5 lj/cut/tip4p/long	  0.70042	1.8233
pair_coeff    5    6 morse     		  0 	       0           0  		# Ow Hw
pair_coeff    5    6 buck                 0            1           0
pair_coeff    5    6 lj/cut/tip4p/long	  0.000	      0.0

pair_coeff    5    5 morse     		  0 	       0           0  		# Ow Ow
pair_coeff    5    5 buck                 0            1           -625.4
pair_coeff    5    5 lj/cut/tip4p/long	  0.008038276	3.1589
pair_coeff    1    6 morse     		  0 	       0           0  		# Hw Be
pair_coeff    1    6 buck                 0            1           0
pair_coeff    1    6 lj/cut/tip4p/long	  0.000	      0.0
pair_coeff    2    6 morse     		  0 	       0           0  		# Hw Al
pair_coeff    2    6 buck                 0            1           0
pair_coeff    2    6 lj/cut/tip4p/long	  0.000	      0.0
pair_coeff    3    6 morse     		  0 	       0           0  		# Hw Si
pair_coeff    3    6 buck                 0            1           0
pair_coeff    3    6 lj/cut/tip4p/long	  0.000	      0.0
pair_coeff    4    6 morse     		  0 	       0           0  		# Hw O
pair_coeff    4    6 buck                 0            1           0
pair_coeff    4    6 lj/cut/tip4p/long	  0.000	      0.0
pair_coeff    6    6 morse     		  0 	       0           0  		# Hw Hw
pair_coeff    6    6 buck                 0            1           0
pair_coeff    6    6 lj/cut/tip4p/long	  0.000	      0.0



bond_style	harmonic
angle_style	harmonic
dihedral_style	none
improper_style	none

bond_coeff	1 35.756   	0.95720
angle_coeff	1 3.969		104.520
group		water type 5 6
3 atoms in group water


#------ Define Settings -----

# ----- Run Minimization -----

fix BRX all box/relax iso 1.013

dump MIN all custom 1 min.lammpstrj id type element x y z ix iy iz

minimize	1e-6 1e-6 5000 10000 # Performs actual minimization
PPPM initialization ...
  extracting TIP4P info from pair style
WARNING: System is not charge neutral, net charge = -0.002 (../kspace.cpp:302)
  using 12-bit tables for long-range coulomb (../kspace.cpp:321)
  G vector (1/distance) = 0.371901
  grid = 12 15 18
  stencil order = 5
  estimated absolute RMS force accuracy = 0.000601098
  estimated relative force accuracy = 4.17439e-05
  using double precision FFTs
  3d grid and FFT values/proc = 8602 3240
Neighbor list info ...
  update every 1 steps, delay 0 steps, check yes
  max neighbors/atom: 2000, page size: 100000
  master list distance cutoff = 9.1092
  ghost atom cutoff = 9.1092
  binsize = 4.5546, bins = 4 2 5
  4 neighbor lists, perpetual/occasional/extra = 4 0 0
  (1) pair morse, perpetual
      attributes: half, newton on
      pair build: half/bin/newton/tri
      stencil: half/bin/3d/newton/tri
      bin: standard
  (2) pair buck, perpetual, copy from (1)
      attributes: half, newton on
      pair build: copy
      stencil: none
      bin: none
  (3) pair lj/cut/coul/long, perpetual, skip from (1)
      attributes: half, newton on
      pair build: skip
      stencil: none
      bin: none
  (4) pair lj/cut/tip4p/long, perpetual, skip from (1)
      attributes: half, newton on
      pair build: skip
      stencil: none
      bin: none
Per MPI rank memory allocation (min/avg/max) = 11.18 | 11.18 | 11.18 Mbytes
Step Temp Volume Cella Cellb Cellc CellGamma Pxx Pyy Pzz Pxy Pxz Pyz Lx Ly Lz Press PotEng 
       0            0    1349.3116        9.208    9.2080001       18.376          120   -208270.33    -205741.2   -279354.99   -678.36275    -2300.119    492.33786        9.208     7.974362       18.376   -231122.18   -2412.8332 
      10            0    1345.2677     9.198792    9.1987921    18.357624          120   -204279.02   -201779.48   -275168.48    -658.9934   -2258.5489     474.4425     9.198792    7.9663876    18.357624   -227075.66   -2413.7055 
      20            0    1341.2319     9.189584    9.1895841    18.339248          120   -199097.81   -196627.61    -270607.6   -639.50581   -2216.8896     456.6869     9.189584    7.9584133    18.339248   -222111.01   -2414.2713 
      30            0    1337.2041     9.180376    9.1803761    18.320872          120   -194016.44   -191575.14   -266141.72   -620.46211   -2175.9113    438.40227     9.180376    7.9504389    18.320872   -217244.43   -2414.8607 
      40            0    1333.1845     9.171168    9.1711681    18.302496          120   -188684.48   -186272.42   -261441.42   -600.64124   -2134.0057    420.48229     9.171168    7.9424646    18.302496   -212132.77   -2415.4003 
      50            0    1329.1729      9.16196    9.1619601     18.28412          120   -183272.64   -180890.89   -256667.15   -580.80262   -2091.8176    402.32318      9.16196    7.9344902     18.28412   -206943.56   -2415.9248 
      60            0    1325.1694     9.152752    9.1527521    18.265744          120   -177859.64   -175506.94   -252147.18   -558.01309   -2049.4103    385.07037     9.152752    7.9265158    18.265744   -201837.92   -2416.4723 
      70            0    1321.1739     9.143544    9.1435441    18.247368          120   -172282.42   -169959.55   -247217.35   -538.00937   -2006.8781    366.96834     9.143544    7.9185415    18.247368   -196486.44   -2416.9691 
      80            0    1317.1865     9.134336    9.1343361    18.228992          120   -166630.75   -164339.57   -242224.89   -517.65863    -1963.894    348.17085     9.134336    7.9105671    18.228992   -191065.07   -2417.4517 
      90            0     1313.207     9.125128    9.1251281    18.210616          120   -160896.88   -158635.95   -237156.57   -497.49125   -1920.9489    329.98187     9.125128    7.9025927    18.210616   -185563.14   -2417.9204 
     100            0    1309.2357      9.11592    9.1159201     18.19224          120   -155319.06   -153088.82    -232011.4   -477.43718   -1878.0366    312.03914      9.11592    7.8946184     18.19224   -180139.76    -2418.409 
     110            0    1305.2723     9.106712    9.1067121    18.173864          120   -149421.65   -147222.33   -226787.87   -458.28431   -1834.4201    293.99799     9.106712     7.886644    18.173864   -174477.28    -2418.848 
     120            0    1301.3169     9.097504    9.0975041    18.155488          120   -143438.59   -141269.88   -221486.57   -438.05048   -1791.0881    275.36986     9.097504    7.8786697    18.155488   -168731.68   -2419.2727 
     130            0    1297.3695     9.088296    9.0882961    18.137112          120   -137369.87    -135231.9    -216105.3   -417.67687   -1747.5273    256.85022     9.088296    7.8706953    18.137112   -162902.36   -2419.6819 
     140            0    1293.4302     9.079088    9.0790881    18.118736          120   -131184.17   -129077.05    -210600.6   -397.15587   -1703.8664    238.33304     9.079088    7.8627209    18.118736   -156953.94   -2420.0717 
     150            0    1289.4988      9.06988    9.0698801     18.10036          120   -124892.83   -122816.31    -205031.8    -377.5406   -1659.5413     220.0002      9.06988    7.8547466     18.10036   -150913.65   -2420.4468 
     160            0    1285.5753     9.060672    9.0606721    18.081984          120   -118558.87   -116512.61   -199404.04   -356.02514   -1615.5509     201.4594     9.060672    7.8467722    18.081984   -144825.17   -2420.8093 
     170            0    1281.6599     9.051464    9.0514641    18.063608          120   -112133.99   -110119.61   -193692.52   -335.46394   -1571.2279    182.85219     9.051464    7.8387978    18.063608   -138648.71   -2421.1564 
     180            0    1277.7524     9.042256    9.0422561    18.045232          120   -105608.75    -103625.6   -187895.62   -314.59779   -1526.7962    163.79002     9.042256    7.8308235    18.045232   -132376.66   -2421.4877 
     190            0    1273.8528     9.033048    9.0330481    18.026856          120   -99023.736   -97071.461   -182015.19    -294.2833   -1481.1363    144.98709     9.033048    7.8228491    18.026856    -126036.8   -2421.8043 
     200            0    1269.9612      9.02384    9.0238401     18.00848          120   -92348.329   -90427.604   -176108.03   -273.43056   -1436.3059    125.96594      9.02384    7.8148748     18.00848   -119627.99   -2422.1076 
     210            0    1266.0776     9.014632    9.0146321    17.990104          120   -85577.255   -83688.474   -170055.21   -252.44135   -1391.3489    106.90917     9.014632    7.8069004    17.990104   -113106.98   -2422.3927 
     220            0    1262.2018     9.005424    9.0054241    17.971728          120   -78739.939   -76883.144   -163971.68   -231.33812   -1346.1421    87.750883     9.005424     7.798926    17.971728   -106531.59   -2422.6648 
     230            0     1258.334     8.996216    8.9962161    17.953352          120   -71761.786   -69937.267   -157793.54   -210.29767    -1300.817    68.704351     8.996216    7.7909517    17.953352   -99830.864   -2422.9174 
     240            0    1254.4741     8.987008    8.9870081    17.934976          120   -64685.563   -62890.897   -151473.99   -185.38999    -1257.101    50.553968     8.987008    7.7829773    17.934976   -93016.816   -2423.1522 
     250            0    1250.6221       8.9778    8.9778001      17.9166          120   -57665.001   -55922.976   -145090.78   -154.36219   -1206.8895    33.061072       8.9778     7.775003      17.9166   -86226.254   -2423.3877 
     260            0    1246.7779     8.968592    8.9685921    17.898224          120    -50870.39   -49160.938    -140380.5   -132.64335   -1160.6818    13.543091     8.968592    7.7670286    17.898224   -80137.276   -2423.8819 
     270            0    1242.9417     8.959384    8.9593841    17.879848          120   -43498.884   -41823.065   -133797.66   -110.30017   -1114.1737   -6.3128954     8.959384    7.7590542    17.879848   -73039.869    -2424.067 
     280            0    1239.1133     8.950176    8.9501761    17.861472          120   -36013.838   -34382.536   -127112.56   -80.056981   -1082.0632   -28.497178     8.950176    7.7510799    17.861472   -65836.312   -2424.2321 
     290            0    1235.2929     8.940968    8.9409681    17.843096          120   -28384.458   -26785.471   -120328.35   -57.451893   -1035.4429   -48.091004     8.940968    7.7431055    17.843096   -58499.427   -2424.3782 
     300            0    1231.4802      8.93176    8.9317601     17.82472          120   -20704.749   -19139.223   -113454.65   -35.336331    -988.8016   -67.929789      8.93176    7.7351311     17.82472   -51099.541   -2424.5111 
     310            0    1227.6754     8.922552    8.9225521    17.806344          120   -12930.414   -11391.927   -106484.72    -9.185488   -941.94676   -87.666347     8.922552    7.7271568    17.806344   -43602.354   -2424.6282 
     320            0    1223.8785     8.913344    8.9133441    17.787968          120   -5026.8451   -3522.7722   -99407.782    13.209349   -895.25416   -107.65767     8.913344    7.7191824    17.787968     -35985.8   -2424.7241 
     330            0    1220.0894     8.904136    8.9041361    17.769592          120    2965.0309    4433.9402   -92228.102    35.617337   -847.63114   -127.79092     8.904136    7.7112081    17.769592   -28276.377   -2424.8042 
     340            0    1216.3082     8.894928    8.8949281    17.751216          120    10823.653    12255.196   -84959.463    56.682321   -802.00705   -151.46963     8.894928    7.7032337    17.751216   -20626.871   -2424.9023 
     350            0    1212.5347      8.88572    8.8857201     17.73284          120    18980.886    20378.006   -77574.281    79.723984   -755.05307   -170.86278      8.88572    7.6952593     17.73284   -12738.463   -2424.9522 
     360            0    1208.7691     8.876512    8.8765121    17.714464          120    27241.595    28598.726   -70030.872     104.1143   -703.86418    -193.3778     8.876512     7.687285    17.714464   -4730.1836   -2424.9883 
     370            0    1206.5134    8.8709872    8.8709873    17.703438          120    30352.264    31547.661   -63651.535    118.83346   -662.74572   -183.79936    8.8709872    7.6825004    17.703438   -583.87002   -2425.3381 
     380            0    1205.7622    8.8691456    8.8691457    17.699763          120    27795.036    28691.588   -57783.141    124.55255   -622.88191   -138.61215    8.8691456    7.6809055    17.699763   -432.17247   -2426.0555 
     389            0    1205.3867    8.8682248    8.8682249    17.697926          120    10973.217    10715.493   -35033.973    107.88949   -471.86092    83.802906    8.8682248     7.680108    17.697926   -4448.4213   -2428.4574 
Loop time of 1.7105 on 1 procs for 389 steps with 119 atoms

99.9% CPU use with 1 MPI tasks x 1 OpenMP threads

Minimization stats:
  Stopping criterion = energy tolerance
  Energy initial, next-to-last, final = 
        -2412.83320781     -2428.45506484     -2428.45749119
  Force two-norm initial, final = 584.144 13.8744
  Force max component initial, final = 583.938 10.4273
  Final line search alpha, max atom move = 8.10779e-06 8.45421e-05
  Iterations, force evaluations = 389 389

MPI task timing breakdown:
Section |  min time  |  avg time  |  max time  |%varavg| %total
---------------------------------------------------------------
Pair    | 0.59269    | 0.59269    | 0.59269    |   0.0 | 34.65
Bond    | 0.00027108 | 0.00027108 | 0.00027108 |   0.0 |  0.02
Kspace  | 0.40297    | 0.40297    | 0.40297    |   0.0 | 23.56
Neigh   | 0.007401   | 0.007401   | 0.007401   |   0.0 |  0.43
Comm    | 0.0076365  | 0.0076365  | 0.0076365  |   0.0 |  0.45
Output  | 0.094989   | 0.094989   | 0.094989   |   0.0 |  5.55
Modify  | 0          | 0          | 0          |   0.0 |  0.00
Other   |            | 0.6046     |            |       | 35.34

Nlocal:    119 ave 119 max 119 min
Histogram: 1 0 0 0 0 0 0 0 0 0
Nghost:    2629 ave 2629 max 2629 min
Histogram: 1 0 0 0 0 0 0 0 0 0
Neighs:    16095 ave 16095 max 16095 min
Histogram: 1 0 0 0 0 0 0 0 0 0

Total # of neighbors = 16095
Ave neighs/atom = 135.252
Ave special neighs/atom = 0.0504202
Neighbor list builds = 6
Dangerous builds = 0
undump MIN

reset_timestep	0
timestep 0.0001

velocity        all create 300.0 87287 loop geom
fix		2 water shake 0.0001 20 100  b 1 a 1
  0 = # of size 2 clusters
  0 = # of size 3 clusters
  0 = # of size 4 clusters
  1 = # of frozen angles
fix		1 all npt temp 300.0 30.0 .1 iso 1.013 1.013 1.0

dump TRJ all custom 1 dump.lammpstrj id type element x y z ix iy iz
dump_modify TRJ sort 1 element Be Al Si O H O

run 		10000
PPPM initialization ...
  extracting TIP4P info from pair style
  using 12-bit tables for long-range coulomb (../kspace.cpp:321)
  G vector (1/distance) = 0.375079
  grid = 12 15 18
  stencil order = 5
  estimated absolute RMS force accuracy = 0.00053528
  estimated relative force accuracy = 3.71732e-05
  using double precision FFTs
  3d grid and FFT values/proc = 8602 3240
Neighbor list info ...
  update every 1 steps, delay 0 steps, check yes
  max neighbors/atom: 2000, page size: 100000
  master list distance cutoff = 9.1092
  ghost atom cutoff = 9.1092
  binsize = 4.5546, bins = 3 2 4
  4 neighbor lists, perpetual/occasional/extra = 4 0 0
  (1) pair morse, perpetual
      attributes: half, newton on
      pair build: half/bin/newton/tri
      stencil: half/bin/3d/newton/tri
      bin: standard
  (2) pair buck, perpetual, copy from (1)
      attributes: half, newton on
      pair build: copy
      stencil: none
      bin: none
  (3) pair lj/cut/coul/long, perpetual, skip from (1)
      attributes: half, newton on
      pair build: skip
      stencil: none
      bin: none
  (4) pair lj/cut/tip4p/long, perpetual, skip from (1)
      attributes: half, newton on
      pair build: skip
      stencil: none
      bin: none
SHAKE stats (type/ave/delta) on step 0
  1 0.962861 0.0021813
  1 106.976 0
Per MPI rank memory allocation (min/avg/max) = 11.7 | 11.7 | 11.7 Mbytes
Step Temp Volume Cella Cellb Cellc CellGamma Pxx Pyy Pzz Pxy Pxz Pyz Lx Ly Lz Press PotEng 
       0     302.5641    1205.3867    8.8682248    8.8682249    17.697926          120    9653.9918    2322.7934   -36801.113   -6216.2055    1256.7589    7523.4068    8.8682248     7.680108    17.697926   -8274.7761   -2428.4648 
      10    297.55141    1205.3863    8.8682239    8.8682239    17.697924          120    15527.584    14932.057   -30154.606    712.27676   -255.13813    316.93803    8.8682239    7.6801072    17.697924    101.67854    -2428.393 
      20    286.96248    1205.3861    8.8682233    8.8682233    17.697923          120    15744.081     15479.34   -29205.078    1316.1013   -704.51648   -43.387519    8.8682233    7.6801067    17.697923     672.7809   -2428.2124 
      30     271.9651    1205.3864    8.8682242    8.8682243    17.697924          120    15976.025    16111.365   -27760.465    1811.6964   -1178.3381   -429.68723    8.8682242    7.6801075    17.697924    1442.3082   -2427.9855 
      40     254.7688    1205.3881    8.8682284    8.8682284    17.697933          120    16267.783    16819.642   -25857.053    2265.3134   -1673.2626   -842.49698    8.8682284    7.6801111    17.697933     2410.124   -2427.7256 
      50    237.94173     1205.392    8.8682378    8.8682379    17.697952          120    16568.487    17536.053   -23543.715    2673.6428   -2181.5363   -1267.7845    8.8682378    7.6801193    17.697952    3520.2751   -2427.4697 
      60     224.0247     1205.399     8.868255    8.8682551    17.697986          120     16811.87    18177.235   -20840.486    3031.2634   -2693.8522   -1684.1537     8.868255    7.6801342    17.697986    4716.2063   -2427.2516 
      70    215.13065    1205.4102    8.8682825    8.8682825    17.698041          120    16933.918    18649.837   -17873.787    3307.2095   -3237.2494   -2107.0674    8.8682825     7.680158    17.698041    5903.3226   -2427.1126 
      80    212.60404    1205.4266    8.8683227    8.8683228    17.698121          120    16898.659    18893.665   -14679.569    3526.4502   -3763.9135   -2546.0485    8.8683227    7.6801929    17.698121    7037.5848   -2427.0745 
      90    216.84329    1205.4493    8.8683783    8.8683784    17.698232          120    16709.188     18885.38   -11264.765     3682.691   -4279.8208   -2971.2711    8.8683783     7.680241    17.698232    8109.9342   -2427.1385 
SHAKE stats (type/ave/delta) on step 100
  1 0.957201 2.94614e-10
  1 104.52 0
     100    227.26943    1205.4791    8.8684516    8.8684516    17.698378          120    16371.919    18646.389   -7663.4081    3785.8635   -4777.7738   -3386.7519    8.8684516    7.6803044    17.698378       9118.3   -2427.2963 
     110    242.46862    1205.5171    8.8685446    8.8685447    17.698564          120    15911.577    18198.804   -3826.5274    3857.8442   -5251.9266   -3790.0101    8.8685446     7.680385    17.698564    10094.618   -2427.5235 
     120    260.46315     1205.564    8.8686596    8.8686597    17.698793          120    15403.636     17573.17     225.6836    3895.2689   -5704.7035    -4183.015    8.8686596    7.6804846    17.698793    11067.497   -2427.7917 
     130    279.06019    1205.6207    8.8687987    8.8687988    17.699071          120    14843.374    16831.198    4513.1274    3913.9304   -6135.9045   -4565.1707    8.8687987     7.680605    17.699071    12062.566   -2428.0715 
     140    296.21755    1205.6881     8.868964    8.8689641    17.699401          120    14312.569    16047.506    9053.8123    3918.3313   -6543.1097   -4942.5604     8.868964    7.6807482    17.699401    13137.963    -2428.329 
     150    310.34692    1205.7672     8.869158     8.869158    17.699788          120    13808.569    15285.722    13846.547    3944.2654   -6932.5756   -5339.0111     8.869158    7.6809162    17.699788    14313.613   -2428.5436 
     160    320.50302     1205.859    8.8693831    8.8693831    17.700237          120    13393.211    14610.861    18929.932    3977.5006   -7302.1452   -5749.6684    8.8693831    7.6811111    17.700237    15644.668   -2428.6931 
     170    326.43808    1205.9647    8.8696422    8.8696423    17.700754          120    13066.136     14023.15    24266.099    4036.0411   -7662.0101   -6206.0105    8.8696422    7.6813355    17.700754    17118.462   -2428.7801 
     180    328.53726    1206.0857    8.8699386    8.8699387    17.701346          120    12793.019     13527.25    29858.802    4113.0081   -8005.7633   -6705.2282    8.8699386    7.6815923    17.701346    18726.357    -2428.809 
     190    327.62349    1206.2232    8.8702758    8.8702759    17.702019          120    12579.273    13108.244     35657.63    4188.9418   -8333.3648   -7257.1343    8.8702758    7.6818843    17.702019    20448.382   -2428.7923 
SHAKE stats (type/ave/delta) on step 200
  1 0.957204 5.21819e-10
  1 104.52 0
     200    324.71859    1206.3789    8.8706575    8.8706576     17.70278          120    12373.831    12774.374    41656.348    4293.9254   -8632.1214   -7861.3496    8.8706575    7.6822148     17.70278    22268.184    -2428.743 
     210    320.77257    1206.5544    8.8710876    8.8710877    17.703639          120    12120.539    12473.412    47759.613    4395.0774   -8911.1827   -8512.6082    8.8710876    7.6825873    17.703639    24117.854   -2428.6822 
     220    316.44248    1206.7513    8.8715702    8.8715703    17.704602          120    11799.734    12193.605    53928.314    4490.4316   -9145.2318   -9194.2402    8.8715702    7.6830053    17.704602    25973.884   -2428.6185 
     230    311.96936    1206.9714    8.8721093    8.8721094    17.705678          120    11380.875    11908.304    60111.915    4575.6899   -9324.2646   -9908.2091    8.8721093    7.6834722    17.705678    27800.365   -2428.5578 
     240    307.15609    1207.2161     8.872709     8.872709    17.706874          120     10847.19    11621.975    66352.795    4628.4631   -9458.4972   -10583.546     8.872709    7.6839915    17.706874     29607.32   -2428.4867 
     250    301.46666    1207.4872    8.8733731    8.8733731      17.7082          120    10163.052    11304.767    72505.237    4618.9885    -9516.627   -11201.238    8.8733731    7.6845666      17.7082    31324.352   -2428.4107 
     260    294.20847    1207.7862    8.8741054    8.8741054    17.709661          120    9372.6691    10976.135    78572.104     4584.107   -9530.8503   -11804.339    8.8741054    7.6852008    17.709661    32973.636   -2428.3094 
     270    284.74053    1208.1145    8.8749095    8.8749096    17.711266          120    8424.7903    10647.237    84530.675    4505.1062   -9474.2049   -12309.256    8.8749095    7.6858972    17.711266    34534.234   -2428.1687 
     280    272.70472    1208.4737    8.8757889     8.875789    17.713021          120    7336.4622    10299.084     90286.91    4377.4845   -9345.6243   -12748.751    8.8757889    7.6866588    17.713021    35974.152   -2427.9911 
     290    258.17989     1208.865    8.8767468    8.8767468    17.714933          120    6107.4266    9930.9497    95737.978    4203.3802    -9169.629    -13128.85    8.8767468    7.6874883    17.714933    37258.785   -2427.7776 
SHAKE stats (type/ave/delta) on step 300
  1 0.957212 6.33372e-10
  1 104.52 0
     300    241.74276    1209.2896    8.8777859    8.8777859    17.717006          120    4725.4103     9538.066    100797.12    3970.7953   -8964.9643   -13466.439    8.8777859    7.6883882    17.717006    38353.533   -2427.5371 
     310    224.42573    1209.7484    8.8789086    8.8789087    17.719247          120    3202.3336    9081.9032    105362.06    3700.3704   -8766.3067   -13751.408    8.8789086    7.6893605    17.719247    39215.432     -2427.29 
     320    207.56225    1210.2424     8.880117    8.8801171    17.721658          120    1556.5526    8632.8016    109366.73    3371.3282   -8572.4274   -14061.334     8.880117     7.690407    17.721658    39852.029   -2427.0453 
     330    192.56741    1210.7722    8.8814125    8.8814126    17.724244          120   -188.53657    8202.2583    112697.52    3021.4781   -8424.8381   -14393.508    8.8814125    7.6915289    17.724244    40237.082   -2426.8251 
     340    180.70185     1211.338    8.8827959     8.882796    17.727004          120   -2029.2824    7731.0558    115290.58    2625.8812   -8337.7472   -14769.271    8.8827959     7.692727    17.727004    40330.785   -2426.6578 
     350    172.86126    1211.9402    8.8842675    8.8842676    17.729941          120   -3932.3785    7263.2397    117118.04    2210.8553   -8331.1891   -15192.197    8.8842675    7.6940015    17.729941    40149.635   -2426.5515 
     360    169.42883    1212.5785    8.8858271    8.8858272    17.733054          120   -5850.8745    6820.9677    118230.14    1788.3033   -8408.2617   -15634.529    8.8858271    7.6953521    17.733054    39733.412   -2426.5055 
     370    170.23571    1213.2528    8.8874737    8.8874738     17.73634          120    -7751.429    6396.8648    118532.12    1349.7235   -8588.0613   -16147.577    8.8874737    7.6967781     17.73634    39059.185   -2426.5309 
     380     174.6299    1213.9623     8.889206     8.889206    17.739797          120   -9586.9253    6020.8011    118135.46    915.18381   -8841.6447   -16727.831     8.889206    7.6982783    17.739797    38189.778   -2426.6079 
     390    181.63436    1214.7066    8.8910221    8.8910222    17.743421          120   -11327.732    5680.7387    117033.99    495.13873   -9205.7254   -17309.415    8.8910221    7.6998511    17.743421    37128.998   -2426.7349 
SHAKE stats (type/ave/delta) on step 400
  1 0.957221 7.73594e-10
  1 104.52 0
     400    190.14203    1215.4846    8.8929199    8.8929199    17.747208          120   -12926.565    5416.0734    115388.44    99.011577   -9618.7485   -17867.603    8.8929199    7.7014946    17.747208    35959.317   -2426.8791 
     410    199.14748    1216.2953    8.8948968    8.8948968    17.751154          120   -14353.703    5231.0039    113197.46   -268.48101   -10058.381   -18409.405    8.8948968    7.7032066    17.751154    34691.589   -2427.0312 
     420    207.92598    1217.1378    8.8969501    8.8969501    17.755251          120   -15590.958    5132.8427    110546.56    -615.7442   -10524.726    -18912.67    8.8969501    7.7049848    17.755251    33362.814   -2427.1761 
     430    216.14946    1218.0109    8.8990769     8.899077    17.759496          120    -16605.62    5110.5502    107408.07   -952.98234   -10982.818    -19377.49    8.8990769    7.7068268    17.759496    31970.999   -2427.3081 
     440    223.90423    1218.9134    8.9012743    8.9012744    17.763881          120   -17518.369    5147.7654    103823.54   -1232.6936   -11366.004   -19794.115    8.9012743    7.7087298    17.763881    30484.311   -2427.4371 
     450    231.62538     1219.844     8.903539    8.9035391    17.768401          120   -18246.535    5233.9249    99693.407   -1503.5166   -11685.485   -20229.062     8.903539    7.7106911    17.768401    28893.599   -2427.5659 
     460    239.96186    1220.8014    8.9058676    8.9058677    17.773048          120   -18831.911     5385.746    95081.671   -1740.7151   -11961.264   -20698.017    8.9058676    7.7127077    17.773048    27211.835    -2427.693 
     470    249.58611     1221.784    8.9082564    8.9082565    17.777815          120   -19369.768    5503.9714    89874.204    -2001.221   -12067.215   -21146.543    8.9082564    7.7147764    17.777815    25336.135   -2427.8483 
     480    261.00775    1222.7902    8.9107012    8.9107013    17.782694          120   -19849.263    5640.0625    84150.789   -2242.7038    -12052.73   -21656.448    8.9107012    7.7168937    17.782694    23313.863   -2428.0218 
     490    274.43203    1223.8182    8.9131976    8.9131977    17.787676          120   -20314.055    5828.3775    77866.749   -2526.8255   -11883.876   -22206.125    8.9131976    7.7190556    17.787676    21127.024   -2428.2144 
SHAKE stats (type/ave/delta) on step 500
  1 0.957228 1.33665e-09
  1 104.52 0
     500    289.64387    1224.8661    8.9157408    8.9157409    17.792751          120   -20836.672    5863.4799    71037.507   -2812.4722   -11594.581   -22757.937    8.9157408    7.7212581    17.792751    18688.105   -2428.4535 
     510     306.0322    1225.9316    8.9183253    8.9183254    17.797909          120   -21410.919    5900.4928     63781.51   -3085.5556   -11212.025   -23338.221    8.9183253    7.7234964    17.797909    16090.361   -2428.7032 
     520    322.67238    1227.0124    8.9209454    8.9209455    17.803138          120   -22082.722    5863.0465    56174.113   -3363.2498   -10728.241   -23953.983    8.9209454    7.7257654    17.803138    13318.146   -2428.9612 
     530    338.47898     1228.106    8.9235949     8.923595    17.808425          120    -22791.24    5807.4324    48402.004   -3616.0308   -10174.491   -24533.632    8.9235949      7.72806    17.808425    10472.732   -2429.1896 
     540    352.37704    1229.2098    8.9262675    8.9262676    17.813759          120   -23527.776    5676.0711    40496.302   -3882.7871   -9625.1408   -25131.576    8.9262675    7.7303745    17.813759    7548.1991   -2429.3902 
     550    363.47932     1230.321    8.9289566    8.9289567    17.819125          120   -24263.072    5574.6234    32538.628   -4146.9799     -9054.19   -25796.397    8.9289566    7.7327034    17.819125    4616.7265    -2429.536 
     560    371.21802    1231.4371    8.9316556    8.9316557    17.824512          120    -25034.85    5287.3853    24622.301   -4376.7206   -8544.0126   -26398.023    8.9316556    7.7350408    17.824512    1624.9456   -2429.6476 
     570    375.40886    1232.5551    8.9343578    8.9343579    17.829904          120   -25777.315     4912.391    16826.851   -4520.1892   -8043.2879   -26987.116    8.9343578    7.7373809    17.829904   -1346.0242   -2429.7046 
     580    376.29171    1233.6723    8.9370565    8.9370565     17.83529          120   -26398.319    4544.2147    9293.9706   -4600.2663   -7588.6943   -27551.643    8.9370565     7.739718     17.83529   -4186.7112   -2429.6834 
     590    374.43683    1234.7861    8.9397452    8.9397452    17.840656          120    -26995.97    4010.6858    1959.7855   -4634.9755   -7150.0215   -28139.013    8.9397452    7.7420465    17.840656   -7008.4994     -2429.63 
SHAKE stats (type/ave/delta) on step 600
  1 0.957229 6.04916e-10
  1 104.52 0
     600    370.66335    1235.8937    8.9424175    8.9424176    17.845989          120   -27510.478    3322.8309   -5225.7025   -4558.8987    -6821.387   -28700.103    8.9424175    7.7443608    17.845989   -9804.4499   -2429.5544 
     610    365.92471    1236.9926    8.9450671    8.9450671    17.851276          120   -27990.808    2489.6787   -12187.477   -4394.4632   -6543.8818   -29286.245    8.9450671    7.7466554    17.851276   -12562.869   -2429.4652 
     620     361.1486    1238.0801    8.9476876    8.9476876    17.856506          120   -28392.133    1584.4342   -18860.409   -4190.3732    -6333.087    -29924.87    8.9476876    7.7489248    17.856506   -15222.703   -2429.3584 
     630    357.11503    1239.1536    8.9502729     8.950273    17.861665          120   -28795.726    391.63483   -25300.165   -3914.7356   -6156.8774    -30581.43    8.9502729    7.7511638    17.861665   -17901.419   -2429.2771 
     640    354.33611    1240.2105    8.9528169     8.952817    17.866742          120   -29173.081   -907.90752   -31501.901   -3606.3661   -6018.6117   -31374.521    8.9528169     7.753367    17.866742    -20527.63   -2429.2094 
     650     352.9824    1241.2484    8.9553136    8.9553137    17.871725          120   -29484.782    -2345.721   -37318.535   -3219.2802   -5868.7585   -32145.069    8.9553136    7.7555292    17.871725   -23049.679   -2429.1432 
     660    352.82772    1242.2648    8.9577572    8.9577572    17.876601          120   -29806.652   -3930.5503   -43042.423   -2857.2847   -5825.2454   -33070.521    8.9577572    7.7576454    17.876601   -25593.208   -2429.1174 
     670    353.33056    1243.2571    8.9601418    8.9601419     17.88136          120   -30082.745   -5497.8212   -48409.021   -2479.5032   -5812.2571   -34034.212    8.9601418    7.7597105     17.88136   -27996.529   -2429.0855 
     680    353.75024    1244.2232     8.962462     8.962462    17.885991          120   -30261.692   -7144.3588   -53591.349   -2175.7507    -5848.822   -35036.699     8.962462    7.7617198    17.885991   -30332.466   -2429.0699 
     690    353.30362    1245.1606    8.9647123    8.9647124    17.890481          120   -30369.799   -8675.3231    -58351.54    -1925.961   -5939.2602   -36112.141    8.9647123    7.7636687    17.890481   -32465.554   -2429.0281 
SHAKE stats (type/ave/delta) on step 700
  1 0.957223 1.51498e-09
  1 104.52 0
     700    351.35231    1246.0674    8.9668879    8.9668879    17.894823          120   -30366.683   -10051.111    -62716.38   -1734.3957   -6077.8589   -37128.745    8.9668879    7.7655528    17.894823   -34378.058   -2428.9572 
     710    347.58406    1246.9415    8.9689842    8.9689842    17.899007          120   -30280.311    -11444.88   -66816.856    -1645.667   -6244.2696   -37983.523    8.9689842    7.7673682    17.899007   -36180.682   -2428.8965 
     720    342.07978    1247.7813    8.9709971    8.9709972    17.903024          120   -29958.818   -12468.818   -70495.342   -1623.0429   -6432.1568   -38842.293    8.9709971    7.7691115    17.903024   -37640.993   -2428.7791 
     730    335.36094    1248.5852    8.9729233    8.9729234    17.906868          120   -29557.028   -13323.204   -73797.916   -1729.5221   -6635.6811   -39570.345    8.9729233    7.7707796    17.906868   -38892.716   -2428.6552 
     740    328.28532     1249.352    8.9747599    8.9747599    17.910533          120   -29029.166   -13935.123   -76802.679   -1873.4931   -6894.9325   -40271.131    8.9747599    7.7723701    17.910533   -39922.323   -2428.5289 
     750    321.88561    1250.0807    8.9765043    8.9765044    17.914014          120   -28378.513   -14325.191   -79426.292   -2138.8588   -7161.6538   -40854.791    8.9765043    7.7738809    17.914014   -40709.999   -2428.4049 
     760     317.2061    1250.7704    8.9781549     8.978155    17.917308          120   -27646.462   -14529.513   -81677.937   -2443.7535   -7443.6633   -41379.279    8.9781549    7.7753103    17.917308   -41284.637   -2428.3007 
     770    315.07578    1251.4205    8.9797103    8.9797103    17.920412          120   -27001.164   -14676.499   -83682.582   -2905.1707   -7744.0935   -41882.028    8.9797103    7.7766573    17.920412   -41786.748   -2428.2699 
     780    315.97062    1252.0306    8.9811693    8.9811694    17.923324          120   -26196.672   -14688.565   -85390.723   -3373.8936   -8090.6204    -42385.45    8.9811693    7.7779208    17.923324   -42091.987   -2428.2684 
     790    319.96669    1252.6003    8.9825312    8.9825313    17.926042          120   -25335.598   -14621.083   -86754.153   -3914.2641   -8498.7537   -42910.961    8.9825312    7.7791003    17.926042   -42236.945   -2428.3164 
SHAKE stats (type/ave/delta) on step 800
  1 0.957213 4.41477e-09
  1 104.52 0
     800    326.69778    1253.1294    8.9837957    8.9837957    17.928565          120   -24384.485    -14482.19   -87723.871   -4520.2373   -8927.7891   -43478.179    8.9837957    7.7801953    17.928565   -42196.849   -2428.3986 
     810    335.44954    1253.6178    8.9849628    8.9849628    17.930894          120   -23281.495   -14241.797   -88298.407    -5136.543   -9468.9063   -44079.272    8.9849628    7.7812061    17.930894   -41940.566    -2428.509 
     820    345.26073    1254.0659    8.9860332    8.9860333    17.933031          120   -22043.311   -13907.587   -88432.511   -5837.4638   -10083.394   -44691.403    8.9860332    7.7821331    17.933031   -41461.136    -2428.636 
     830    355.13793    1254.4741    8.9870081    8.9870081    17.934976          120   -20599.001   -13483.779   -88090.811   -6554.1813   -10799.159   -45358.711    8.9870081    7.7829774    17.934976   -40724.531    -2428.759 
     840    364.22066    1254.8431    8.9878891    8.9878891    17.936734          120   -19059.782   -13013.804   -87318.527   -7273.9888   -11539.957   -46053.699    8.9878891    7.7837403    17.936734   -39797.371   -2428.8941 
     850    371.92249    1255.1737    8.9886784    8.9886784     17.93831          120   -17243.817   -12280.677   -85991.166   -8034.3862   -12363.752   -46780.653    8.9886784    7.7844239     17.93831    -38505.22   -2428.9773 
     860    378.00564    1255.4672     8.989379     8.989379    17.939708          120   -15239.281    -11531.52   -84312.096   -8779.2347   -13168.327   -47620.105     8.989379    7.7850306    17.939708   -37027.632   -2429.0614 
     870    382.58662     1255.725    8.9899943    8.9899944    17.940936          120   -13001.087   -10736.676    -82251.52   -9511.5605    -14085.09   -48470.026    8.9899943    7.7855635    17.940936   -35329.761   -2429.1348 
     880    386.06237    1255.9488    8.9905283    8.9905284    17.942001          120   -10457.233   -9827.8442   -79824.094   -10248.559   -14990.212   -49297.513    8.9905283     7.786026    17.942001   -33369.724   -2429.1756 
     890      388.995    1256.1405    8.9909855    8.9909856    17.942914          120   -7876.3083   -8832.6165   -77231.936   -10979.628    -15927.53   -50207.958    8.9909855    7.7864219    17.942914    -31313.62   -2429.2352 
SHAKE stats (type/ave/delta) on step 900
  1 0.957204 3.48066e-09
  1 104.52 0
     900    391.97019    1256.3019    8.9913707    8.9913708    17.943682          120   -5077.2476   -7725.0218   -74377.159   -11661.494   -16956.941   -51131.739    8.9913707    7.7867555    17.943682    -29059.81   -2429.2804 
     910     395.4489    1256.4354    8.9916891    8.9916891    17.944318          120   -2140.6243   -6510.4051   -71410.272   -12318.157   -17938.292   -52086.989    8.9916891    7.7870312    17.944318     -26687.1   -2429.3336 
     920    399.72556    1256.5431    8.9919461    8.9919461    17.944831          120    850.53534   -5182.5198   -68341.763   -12948.727   -18907.354   -53030.167    8.9919461    7.7872538    17.944831   -24224.582    -2429.404 
     930    404.87895    1256.6275    8.9921475    8.9921475    17.945233          120    3912.2404   -3678.4664   -65138.308   -13538.328    -19872.41   -53965.812    8.9921475    7.7874282    17.945233   -21634.845   -2429.4732 
     940    410.77556    1256.6911    8.9922992    8.9922992    17.945535          120    6921.8667   -2057.8653   -61884.028   -14108.522   -20885.107   -54806.468    8.9922992    7.7875596    17.945535   -19006.676   -2429.5671 
     950    417.17607    1256.7365    8.9924073    8.9924074    17.945751          120    9837.4723   -286.78319   -58512.875   -14672.397    -21864.15   -55548.151    8.9924073    7.7876533    17.945751   -16320.729   -2429.6719 
     960    423.78759    1256.7661    8.9924781    8.9924781    17.945892          120    12721.638    1594.3082   -54973.822   -15140.092   -22872.141   -56270.402    8.9924781    7.7877145    17.945892   -13552.625   -2429.7753 
     970    430.29564    1256.7828    8.9925178    8.9925179    17.945972          120     15504.28    3613.3109   -51170.697     -15599.7   -23868.531   -56957.107    8.9925178     7.787749    17.945972   -10684.369   -2429.8632 
     980    436.38252    1256.7892    8.9925332    8.9925333    17.946002          120    18035.948    5548.8875   -47229.934   -16043.951   -24848.022   -57556.693    8.9925332    7.7877623    17.946002   -7881.6995   -2429.9758 
     990    441.72707    1256.7882    8.9925306    8.9925307    17.945997          120    20474.202    7503.2492    -42938.58    -16436.63   -25805.195   -58111.005    8.9925306      7.78776    17.945997   -4987.0429   -2430.0568 
SHAKE stats (type/ave/delta) on step 1000
  1 0.9572 1.8104e-09
  1 104.52 0
    1000    446.01334    1256.7823    8.9925167    8.9925168    17.945969          120    22754.044    9416.9954   -38466.448   -16764.769   -26741.293    -58668.48    8.9925167     7.787748    17.945969   -2098.4694   -2430.1246 
    1010    448.90228    1256.7745    8.9924981    8.9924982    17.945932          120    24827.565    11161.587   -33786.861   -17039.763   -27655.042   -59203.094    8.9924981    7.7877319    17.945932    734.09674    -2430.184 
    1020    450.09721    1256.7675    8.9924813    8.9924814    17.945899          120     26791.92    12757.384   -28891.465   -17264.279   -28460.072   -59755.507    8.9924813    7.7877173    17.945899    3552.6133   -2430.2153 
    1030    449.40349    1256.7639    8.9924728    8.9924729    17.945882          120    28615.002    14242.973   -23808.346   -17404.634   -29139.866   -60301.054    8.9924728      7.78771    17.945882    6349.8763   -2430.2118 
    1040    446.78395    1256.7665    8.9924789     8.992479    17.945894          120    30299.586    15510.123   -18624.813   -17487.007   -29692.449   -60807.356    8.9924789    7.7877153    17.945894    9061.6321    -2430.183 
    1050    442.40147    1256.7778    8.9925059     8.992506    17.945948          120    31814.765    16617.422   -13430.715    -17527.16   -30074.713   -61269.282    8.9925059    7.7877387    17.945948    11667.157   -2430.1263 
    1060    436.60774    1256.8004    8.9925597    8.9925598    17.946055          120    33217.861    17466.104   -8258.4876   -17488.669   -30334.858    -61693.81    8.9925597    7.7877853    17.946055    14141.826   -2430.0422 
    1070    429.88951    1256.8365     8.992646     8.992646    17.946227          120    34353.273    18101.713    -3275.949   -17401.545   -30371.644   -62087.257     8.992646    7.7878599    17.946227    16393.012   -2429.9555 
    1080    422.79073    1256.8884    8.9927697    8.9927698    17.946474          120    35250.695     18424.23    1447.1359   -17258.434   -30259.858   -62434.821    8.9927697    7.7879671    17.946474     18374.02   -2429.8726 
    1090    415.79396    1256.9579    8.9929355    8.9929356    17.946805          120    36007.963    18518.496    5847.6413   -17128.571   -30005.955   -62767.747    8.9929355    7.7881107    17.946805      20124.7   -2429.7779 
SHAKE stats (type/ave/delta) on step 1100
  1 0.957202 1.68317e-09
  1 104.52 0
    1100    409.21984    1257.0468    8.9931473    8.9931474    17.947228          120    36531.326    18340.917    9739.5988   -17039.665   -29654.374   -63186.679    8.9931473    7.7882941    17.947228     21537.28   -2429.7004 
    1110    403.11253    1257.1562    8.9934083    8.9934084    17.947749          120    36810.281    17840.961    13247.753   -16928.815    -29255.63   -63610.559    8.9934083    7.7885202    17.947749    22632.998   -2429.6356 
    1120     397.2389    1257.2873     8.993721    8.9937211    17.948373          120    36903.427    17139.613    16293.115   -16874.889   -28873.881   -64126.793     8.993721     7.788791    17.948373    23445.385   -2429.5735 
    1130     391.1807     1257.441    8.9940873    8.9940873    17.949104          120    36904.892    16307.187    18833.459   -16812.935   -28551.878   -64730.067    8.9940873    7.7891081    17.949104    24015.179   -2429.5034 
    1140    384.42294    1257.6176    8.9945083    8.9945084    17.949944          120    36865.453    15334.861    20983.038    -16771.79    -28236.61    -65339.64    8.9945083    7.7894728    17.949944     24394.45   -2429.4141 
    1150    376.53752    1257.8175     8.994985    8.9949851    17.950895          120    36794.656    14410.337     22765.39   -16789.754   -27999.596   -65978.128     8.994985    7.7898856    17.950895    24656.794   -2429.2829 
    1160    367.36644    1258.0411    8.9955179     8.995518    17.951959          120    36670.127    13238.724    24132.596   -16847.902   -27778.918   -66593.404    8.9955179    7.7903471    17.951959    24680.482   -2429.1596 
    1170    357.09494    1258.2883     8.996107    8.9961071    17.953135          120    36440.629    12154.834    25197.533   -16917.587   -27556.104   -67192.664     8.996107    7.7908573    17.953135    24597.666   -2429.0125 
    1180    346.27217     1258.559    8.9967521    8.9967522    17.954422          120    36184.326    10956.604    25950.699   -16944.947   -27328.589   -67798.813    8.9967521     7.791416    17.954422    24363.876   -2428.8659 
    1190    335.69266     1258.853    8.9974526    8.9974527     17.95582          120    35946.426    9829.2458    26386.824   -16984.173   -27039.275   -68354.251    8.9974526    7.7920226     17.95582    24054.165   -2428.7048 
SHAKE stats (type/ave/delta) on step 1200
  1 0.957208 4.13671e-09
  1 104.52 0
    1200    326.20579    1259.1699    8.9982077    8.9982078    17.957327          120    35518.562    8613.1418    26570.089   -16941.384    -26655.15   -68846.079    8.9982077    7.7926765    17.957327    23567.264   -2428.5711 
    1210    318.53633    1259.5094    8.9990163    8.9990163     17.95894          120    34986.462    7366.8568    26309.743   -16848.204   -26226.946   -69304.559    8.9990163    7.7933768     17.95894    22887.687   -2428.4786 
    1220    313.16713    1259.8707    8.9998767    8.9998768    17.960658          120    34331.129    6175.6672    25765.464   -16693.814   -25804.298    -69651.76    8.9998767     7.794122    17.960658    22090.753   -2428.4155 
    1230    310.32598    1260.2532    9.0007872    9.0007873    17.962475          120    33530.062     4952.843     24816.78   -16438.354   -25387.884   -69923.335    9.0007872    7.7949105    17.962475    21099.895   -2428.4083 
    1240    310.03563    1260.6557    9.0017455    9.0017455    17.964387          120    32604.436    3862.2336    23618.333   -16074.608   -24972.164   -70085.083    9.0017455    7.7957403    17.964387    20028.334   -2428.4313 
    1250    312.13364    1261.0774     9.002749    9.0027491     17.96639          120    31736.136    2886.0057    22048.326   -15639.812   -24616.086   -70109.264     9.002749    7.7966094     17.96639    18890.156   -2428.4843 
    1260    316.34515     1261.517    9.0037951    9.0037952    17.968477          120    30861.147    2006.7365    20171.073   -15093.873   -24357.412   -70026.778    9.0037951    7.7975154    17.968477    17679.652   -2428.5708 
    1270    322.31994    1261.9736    9.0048811    9.0048812    17.970645          120    30021.221     1090.226    17997.508   -14387.633   -24117.039   -69890.391    9.0048811    7.7984559    17.970645    16369.652   -2428.7047 
    1280    329.64126    1262.4457    9.0060039     9.006004    17.972885          120    29246.956    407.89645    15583.664   -13563.467   -23929.668    -69712.47    9.0060039    7.7994283    17.972885    15079.505   -2428.8387 
    1290    337.89439    1262.9321    9.0071605    9.0071605    17.975193          120    28493.127   -201.04397    12896.512   -12629.475   -23808.839    -69462.32    9.0071605    7.8004299    17.975193    13729.532   -2428.9985 
SHAKE stats (type/ave/delta) on step 1300
  1 0.957213 6.18729e-09
  1 104.52 0
    1300    346.62029    1263.4316    9.0083477    9.0083478    17.977563          120     27882.74   -754.07402     10052.39    -11611.23   -23702.333    -69275.21    9.0083477     7.801458    17.977563    12393.686   -2429.1531 
    1310    355.37649    1263.9428    9.0095625    9.0095626    17.979987          120    27346.984   -1258.6279    7052.0224   -10536.224   -23628.491   -69167.504    9.0095625    7.8025101    17.979987    11046.793   -2429.3033 
    1320    363.74614    1264.4644    9.0108018    9.0108019     17.98246          120    26808.586   -1840.0368    3860.9462   -9419.6686   -23604.318   -69090.844    9.0108018    7.8035833     17.98246    9609.8316   -2429.4666 
    1330     371.3493    1264.9951    9.0120622    9.0120623    17.984976          120    26327.995   -2341.0965    618.97115   -8304.3262   -23631.926   -69174.612    9.0120622    7.8046749    17.984976    8201.9564   -2429.5983 
    1340    377.89788    1265.5335    9.0133405    9.0133406    17.987527          120    25837.266   -2955.6176   -2737.1105   -7234.3572   -23722.225   -69297.405    9.0133405    7.8057819    17.987527    6714.8461   -2429.7266 
    1350    383.24411    1266.0781    9.0146332    9.0146333    17.990106          120    25356.059   -3523.7904   -6162.3109   -6244.1824   -23844.484   -69500.441    9.0146332    7.8069014    17.990106    5223.3194   -2429.8205 
    1360    387.41052    1266.6275    9.0159369     9.015937    17.992708          120    24750.578   -4092.4662   -9592.1653   -5404.4615    -24047.04    -69775.76    9.0159369    7.8080305    17.992708    3688.6489    -2429.895 
    1370    390.61366    1267.1801     9.017248     9.017248    17.995325          120    24064.862   -4742.7195   -13129.307   -4722.3261   -24244.402   -70076.711     9.017248    7.8091659    17.995325    2064.2788    -2429.959 
    1380     393.2071    1267.7344    9.0185626    9.0185627    17.997948          120    23272.024   -5519.6782   -16744.886   -4268.2189   -24461.917    -70399.07    9.0185626    7.8103044    17.997948    335.82002   -2430.0196 
    1390    395.61648    1268.2887    9.0198769    9.0198769    18.000571          120    22417.572   -6369.8581   -20420.981   -3934.4129   -24682.336   -70742.328    9.0198769    7.8114426    18.000571   -1457.7557   -2430.0677 
SHAKE stats (type/ave/delta) on step 1400
  1 0.957214 8.33988e-10
  1 104.52 0
    1400    398.20747    1268.8413    9.0211866    9.0211866    18.003185          120    21489.887   -7269.5132   -24107.352   -3750.1046   -24840.616   -71096.817    9.0211866    7.8125768    18.003185   -3295.6595   -2430.0974 
    1410    401.16815    1269.3902    9.0224874    9.0224874    18.005781          120    20527.089   -8522.0403   -27912.295    -3651.788    -24968.43   -71387.969    9.0224874    7.8137034    18.005781   -5302.4154   -2430.1564 
    1420    404.42992    1269.9337    9.0237747    9.0237747     18.00835          120    19381.394   -9846.7984   -31785.574   -3729.5685   -24964.911   -71553.881    9.0237747    7.8148182     18.00835   -7416.9927   -2430.2263 
    1430    407.66483    1270.4695    9.0250436    9.0250436    18.010882          120    18203.085   -11207.018   -35689.185   -3918.8056   -24844.837   -71608.238    9.0250436    7.8159171    18.010882   -9564.3729    -2430.291 
    1440    410.35715    1270.9955     9.026289    9.0262891    18.013367          120    16975.574   -12709.772   -39593.726   -4224.5647   -24619.582   -71469.099     9.026289    7.8169957    18.013367   -11775.975   -2430.3634 
    1450    411.94256    1271.5097     9.027506     9.027506    18.015796          120    15891.995   -14241.873   -43444.198   -4579.1517   -24309.873   -71150.469     9.027506    7.8180496    18.015796   -13931.359    -2430.412 
    1460    411.92498    1272.0098    9.0286894    9.0286895    18.018158          120    14910.101   -15699.863   -47128.253   -5005.9564   -23948.557   -70637.117    9.0286894    7.8190745    18.018158   -15972.672    -2430.425 
    1470    409.95511    1272.4938    9.0298345    9.0298346    18.020443          120    14147.467   -17067.879    -50604.27   -5503.1644   -23555.349   -69954.317    9.0298345    7.8200662    18.020443   -17841.561   -2430.3917 
    1480     405.9339      1272.96     9.030937    9.0309371    18.022643          120    13468.476   -18340.705   -54002.559   -5985.3294   -23222.839   -69091.348     9.030937     7.821021    18.022643    -19624.93   -2430.3475 
    1490    400.01966    1273.4065    9.0319928    9.0319929     18.02475          120    12980.588    -19532.39   -57086.921   -6514.0194   -22916.666   -68028.606    9.0319928    7.8219353     18.02475   -21212.907   -2430.2667 
SHAKE stats (type/ave/delta) on step 1500
  1 0.95721 2.90712e-09
  1 104.52 0
    1500    392.66328    1273.8317    9.0329981    9.0329982    18.026756          120    12669.045   -20587.342   -60028.745   -7001.8352   -22716.822   -66931.416    9.0329981    7.8228059    18.026756   -22649.014   -2430.1704 
    1510    384.57777    1274.2343    9.0339496    9.0339497    18.028655          120    12543.719   -21482.235   -62641.136   -7526.0717    -22600.04   -65771.955    9.0339496    7.8236299    18.028655   -23859.884   -2430.0452 
    1520    376.65355     1274.613    9.0348445    9.0348446    18.030441          120     12478.52   -22249.806   -64967.096    -7931.335   -22517.821   -64633.162    9.0348445    7.8244049    18.030441   -24912.794   -2429.9219 
    1530    369.74789    1274.9668    9.0356803    9.0356804    18.032109          120    12414.961   -22897.093   -67131.215   -8222.7055   -22486.429   -63470.311    9.0356803    7.8251288    18.032109   -25871.116   -2429.8309 
    1540    364.51058    1275.2948     9.036455     9.036455    18.033655          120    12343.018   -23370.646   -69088.377   -8360.4421   -22463.469   -62380.151     9.036455    7.8257996    18.033655   -26705.335   -2429.7665 
    1550    361.26306     1275.596    9.0371665    9.0371665    18.035075          120    12242.519   -23642.073   -70825.592   -8411.7338   -22449.083   -61383.279    9.0371665    7.8264158    18.035075   -27408.382   -2429.7342 
    1560    359.92818    1275.8699    9.0378132    9.0378133    18.036366          120     12096.45   -23668.149   -72443.185   -8249.8832   -22406.084   -60462.709    9.0378132    7.8269759    18.036366   -28004.962   -2429.7391 
    1570    360.05277    1276.1158    9.0383939    9.0383939    18.037524          120    11984.523   -23422.283       -73783   -7960.7091   -22306.507   -59696.269    9.0383939    7.8274788    18.037524    -28406.92   -2429.7535 
    1580     360.9541    1276.3334    9.0389075    9.0389076     18.03855          120    11929.458   -22946.752   -74904.688   -7602.8865   -22201.965   -59031.124    9.0389075    7.8279236     18.03855   -28640.661   -2429.7814 
    1590    361.85345    1276.5224    9.0393538    9.0393538     18.03944          120    11896.455    -22196.45   -75783.997   -7189.0448   -22147.346   -58526.315    9.0393538    7.8283101     18.03944   -28694.664   -2429.8138 
SHAKE stats (type/ave/delta) on step 1600
  1 0.957204 2.96323e-09
  1 104.52 0
    1600    362.08337    1276.6829    9.0397325    9.0397326    18.040196          120    11944.196    -21121.14    -76373.06    -6809.343   -22222.911   -58125.809    9.0397325    7.8286381    18.040196   -28516.668   -2429.8254 
    1610    361.28345     1276.815    9.0400442    9.0400442    18.040818          120     12171.38   -19903.306   -76748.776   -6498.5744   -22372.595   -57841.792    9.0400442     7.828908    18.040818   -28160.234   -2429.8251 
    1620    359.50628     1276.919    9.0402897    9.0402898    18.041308          120    12510.309   -18519.575   -76946.602   -6265.2649   -22609.825   -57683.476    9.0402897    7.8291206    18.041308   -27651.956   -2429.8176 
    1630    357.15854    1276.9956    9.0404704    9.0404704    18.041668          120    12981.878   -16911.876   -77104.764   -6180.2083   -22914.379   -57554.856    9.0404704    7.8292771    18.041668   -27011.587   -2429.7981 
    1640    354.83053    1277.0453    9.0405877    9.0405878    18.041903          120    13509.346   -15276.299   -77074.416   -6110.3476   -23230.164   -57512.023    9.0405877    7.8293787    18.041903   -26280.456   -2429.7789 
    1650    353.04897    1277.0689    9.0406435    9.0406435    18.042014          120    14033.189   -13519.392    -77025.02   -6090.1962   -23498.283   -57477.894    9.0406435     7.829427    18.042014   -25503.741   -2429.7681 
    1660    352.12374    1277.0673    9.0406396    9.0406397    18.042006          120    14574.917   -11669.227   -76916.429   -6081.4246    -23691.43   -57420.122    9.0406396    7.8294236    18.042006   -24670.247   -2429.7581 
    1670    352.08296    1277.0412     9.040578    9.0405781    18.041883          120    15078.323   -9779.6482   -76781.102   -6041.6721   -23856.039   -57296.776     9.040578    7.8293703    18.041883   -23827.476   -2429.7592 
    1680    352.66259    1276.9915    9.0404609     9.040461     18.04165          120    15446.993   -7870.8404   -76658.372   -6016.2091     -23882.1   -57112.592    9.0404609    7.8292689     18.04165   -23027.407   -2429.7844 
    1690    353.42984    1276.9191      9.04029    9.0402901    18.041309          120    15761.557   -5955.3386   -76469.061   -5920.7076   -23815.123   -56759.138      9.04029    7.8291209    18.041309   -22220.947    -2429.812 
SHAKE stats (type/ave/delta) on step 1700
  1 0.957197 6.10453e-10
  1 104.52 0
    1700     353.9199    1276.8248    9.0400674    9.0400675    18.040864          120    16024.437   -4170.3627   -76195.206   -5721.8973   -23660.357   -56293.779    9.0400674    7.8289281    18.040864   -21447.044   -2429.8536 
    1710    353.77651    1276.7094     9.039795    9.0397951    18.040321          120    16365.845   -2313.2077   -75769.311   -5454.3465   -23441.388    -55712.57     9.039795    7.8286922    18.040321   -20572.225   -2429.8657 
    1720    352.87513    1276.5738    9.0394749     9.039475    18.039682          120    16773.095   -497.15022   -75214.605    -5110.987   -23170.962   -55013.551    9.0394749     7.828415    18.039682    -19646.22   -2429.8652 
    1730    351.34463    1276.4189    9.0391093    9.0391094    18.038952          120    17316.464    1227.3871   -74495.051   -4684.3165   -22839.452   -54233.328    9.0391093    7.8280984    18.038952     -18650.4   -2429.8519 
    1740    349.52078    1276.2458    9.0387006    9.0387007    18.038137          120    17892.835    2841.2529    -73618.56   -4148.8967   -22523.486   -53416.937    9.0387006    7.8277444    18.038137   -17628.158   -2429.8463 
    1750    347.83534    1276.0554    9.0382513    9.0382514     18.03724          120    18564.979    4275.3981   -72541.745   -3549.7579   -22271.547   -52541.688    9.0382513    7.8273553     18.03724   -16567.123    -2429.851 
    1760     346.7013     1275.849    9.0377639    9.0377639    18.036267          120    19357.463    5594.5977   -71160.511   -2936.1005   -22038.527    -51643.59    9.0377639    7.8269332    18.036267   -15402.817   -2429.8546 
    1770    346.41293    1275.6276    9.0372411    9.0372412    18.035224          120    20216.702    6725.2567   -69442.576   -2379.1694   -21820.429   -50744.505    9.0372411    7.8264805    18.035224   -14166.872   -2429.8713 
    1780    347.09436    1275.3926     9.036686     9.036686    18.034116          120    21161.777    7640.9657    -67341.38   -1826.4883   -21625.421   -49936.034     9.036686    7.8259997    18.034116   -12846.213   -2429.9021 
    1790    348.68119    1275.1451    9.0361016    9.0361017     18.03295          120     22178.74    8439.2661   -64838.607   -1287.2858   -21498.586   -49154.978    9.0361016    7.8254936     18.03295   -11406.867   -2429.9361 
SHAKE stats (type/ave/delta) on step 1800
  1 0.957193 6.08398e-09
  1 104.52 0
    1800    350.98324    1274.8868    9.0354914    9.0354915    18.031732          120    23265.308    9181.0047   -61965.992   -812.19696    -21422.87   -48415.325    9.0354914    7.8249652    18.031732   -9839.8933   -2429.9711 
    1810    353.75707    1274.6192     9.034859    9.0348591     18.03047          120    24258.271    9699.3096   -58777.581   -378.32559   -21391.148   -47836.302     9.034859    7.8244175     18.03047   -8273.3333   -2430.0426 
    1820     356.8094    1274.3438    9.0342083    9.0342083    18.029171          120    25262.874    10100.063    -55229.38    2.8005349   -21480.036   -47357.602    9.0342083    7.8238539    18.029171   -6622.1478   -2430.1134 
    1830    360.03836    1274.0622    9.0335429     9.033543    18.027844          120    26201.776    10453.773    -51346.56    282.83852   -21687.716   -47001.149    9.0335429    7.8232777    18.027844   -4897.0038   -2430.1815 
    1840    363.42538    1273.7763    9.0328671    9.0328672    18.026495          120    27061.138    10672.629   -47192.333    560.36072   -22016.962   -46798.572    9.0328671    7.8226924    18.026495   -3152.8553   -2430.2525 
    1850    367.02298    1273.4877    9.0321848    9.0321849    18.025133          120     27844.56     10782.19   -42963.272    794.66343   -22413.505   -46722.024    9.0321848    7.8221016    18.025133   -1445.5073   -2430.3326 
    1860    370.89511    1273.1981    9.0315001    9.0315002    18.023767          120    28493.437     10801.25   -38569.408    1002.3165   -22983.708   -46818.051    9.0315001    7.8215086    18.023767    241.75957   -2430.4075 
    1870    375.06607    1272.9092    9.0308169     9.030817    18.022403          120    29044.915    10726.851   -34208.379    1201.2034    -23609.38    -47023.48    9.0308169    7.8209169    18.022403    1854.4622   -2430.4866 
    1880    379.46585    1272.6225     9.030139    9.0301391    18.021051          120    29445.935    10668.569   -29988.756    1400.6527   -24305.069   -47378.045     9.030139    7.8203299    18.021051    3375.2491   -2430.5685 
    1890    383.90972    1272.3397    9.0294699      9.02947    18.019715          120    29739.644    10612.797   -25999.323    1614.6654   -24954.746   -47763.255    9.0294699    7.8197504    18.019715    4784.3726   -2430.6554 
SHAKE stats (type/ave/delta) on step 1900
  1 0.957193 7.10622e-09
  1 104.52 0
    1900    388.11582    1272.0619    9.0288128    9.0288129    18.018404          120    29994.336    10526.401   -22216.553    1802.7848   -25593.561   -48259.952    9.0288128    7.8191814    18.018404    6101.3945   -2430.7365 
    1910    391.74146    1271.7906    9.0281709     9.028171    18.017123          120    30254.766    10664.611   -18749.343    2061.5331   -26110.051   -48781.347    9.0281709    7.8186254    18.017123    7390.0113   -2430.7948 
    1920    394.48155     1271.527    9.0275471    9.0275472    18.015878          120    30588.575    10827.725   -15542.861    2294.5048   -26464.189   -49301.294    9.0275471    7.8180852    18.015878    8624.4796   -2430.8403 
    1930    396.10864    1271.2723    9.0269443    9.0269443    18.014675          120     30904.39    11124.425   -12624.542    2516.9538   -26606.205   -49794.869    9.0269443    7.8175631    18.014675    9801.4241   -2430.8806 
    1940    396.54808    1271.0276    9.0263651    9.0263652    18.013519          120    31315.374    11525.528   -9921.3749    2738.4655   -26521.882    -50189.84    9.0263651    7.8170615    18.013519    10973.176   -2430.9035 
    1950     395.9186    1270.7941    9.0258122    9.0258123    18.012416          120    31838.137    11948.702   -7378.5641    2960.1872   -26194.165   -50500.688    9.0258122    7.8165828    18.012416    12136.091   -2430.9168 
    1960    394.48852    1270.5728    9.0252884    9.0252885     18.01137          120    32526.999    12449.071   -4949.6838    3057.6872   -25719.966   -50662.113    9.0252884    7.8161291     18.01137    13342.129   -2430.9101 
    1970    392.61011     1270.365    9.0247963    9.0247964    18.010388          120    33281.316     13023.86   -2670.7366    3142.6856   -25037.282    -50695.39    9.0247963     7.815703    18.010388    14544.813   -2430.8998 
    1980    390.61651    1270.1718    9.0243388    9.0243388    18.009475          120     34111.66    13556.596    -392.0767    3138.0337   -24270.035   -50543.046    9.0243388    7.8153067    18.009475    15758.726   -2430.8856 
    1990    388.73206    1269.9944    9.0239185    9.0239186    18.008637          120    35032.333    14069.084    1866.0453    3053.4393   -23436.846   -50184.127    9.0239185    7.8149428    18.008637    16989.154   -2430.8637 
SHAKE stats (type/ave/delta) on step 2000
  1 0.957196 4.13737e-09
  1 104.52 0
    2000    386.99606    1269.8339    9.0235384    9.0235384    18.007878          120    35990.082    14464.008     4108.109    2949.2791   -22560.471   -49598.093    9.0235384    7.8146135    18.007878      18187.4   -2430.8511 
    2010    385.25593    1269.6915     9.023201    9.0232011    18.007205          120    36955.162    14718.564    6288.9841    2895.3316   -21743.092   -48922.649     9.023201    7.8143214    18.007205    19320.903    -2430.859 
    2020    383.22962    1269.5682    9.0229091    9.0229092    18.006622          120     37973.51    14931.143    8610.2711    2751.5444   -20951.865    -47910.13    9.0229091    7.8140686    18.006622    20504.975   -2430.8441 
    2030    380.59835    1269.4653    9.0226652    9.0226652    18.006135          120    38811.963    15136.796    11023.198    2590.3293   -20283.316   -46767.347    9.0226652    7.8138573    18.006135    21657.319   -2430.8352 
    2040    377.07366    1269.3837     9.022472     9.022472     18.00575          120    39700.907    15374.266    13611.412    2429.6947   -19676.043   -45478.711     9.022472      7.81369     18.00575    22895.528   -2430.7935 
    2050    372.52003    1269.3248    9.0223322    9.0223323    18.005471          120    40524.038    15583.598    16260.201    2306.1623   -19214.399    -44105.31    9.0223322     7.813569    18.005471    24122.612   -2430.7452 
    2060    366.97768    1269.2895    9.0222487    9.0222488    18.005304          120    41280.749    15826.703    18993.542    2187.0244    -18814.11     -42609.7    9.0222487    7.8134967    18.005304    25366.998   -2430.6771 
    2070    360.66292    1269.2792    9.0222244    9.0222245    18.005256          120    41889.664    16088.572    21752.558    2085.7762   -18526.727   -41094.013    9.0222244    7.8134756    18.005256    26576.931   -2430.6011 
    2080    353.99241    1269.2951    9.0222618    9.0222619    18.005331          120    42369.601    16355.218    24446.459    2014.3361   -18351.248   -39617.212    9.0222618     7.813508    18.005331    27723.759   -2430.5151 
    2090    347.52402     1269.338    9.0223637    9.0223638    18.005534          120    42627.464    16580.498    26899.325    1878.9613   -18259.784   -38181.086    9.0223637    7.8135962    18.005534    28702.429   -2430.4412 
SHAKE stats (type/ave/delta) on step 2100
  1 0.957202 4.55103e-09
  1 104.52 0
    2100     341.8696    1269.4091    9.0225321    9.0225322     18.00587          120    42680.361    16687.992    29039.215    1775.0329   -18226.082   -36833.982    9.0225321    7.8137421     18.00587    29469.189   -2430.3829 
    2110    337.57693    1269.5091    9.0227689    9.0227689    18.006342          120    42542.025    16774.767    30768.736    1648.8371   -18277.094   -35639.067    9.0227689    7.8139471    18.006342    30028.509   -2430.3252 
    2120    335.02608    1269.6383     9.023075    9.0230751    18.006953          120    42112.454    16603.674    31802.837    1461.8467    -18391.46   -34636.321     9.023075    7.8142123    18.006953    30172.988   -2430.3238 
    2130    334.35846     1269.797     9.023451    9.0234511    18.007704          120    41317.654    16543.582    32145.684    1261.9734   -18496.853   -33800.425     9.023451    7.8145379    18.007704    30002.307   -2430.3321 
    2140    335.42535     1269.985    9.0238962    9.0238963    18.008592          120    40225.509    16268.331    31773.155     995.8382    -18619.43   -33161.703    9.0238962    7.8149234    18.008592    29422.332   -2430.3781 
    2150    337.81295    1270.2016    9.0244093    9.0244094    18.009616          120    38834.301    16038.022    30695.472    698.07725   -18701.197   -32698.915    9.0244093    7.8153678    18.009616    28522.598   -2430.4298 
    2160    340.97984    1270.4461    9.0249882    9.0249883    18.010771          120    37152.149    15735.698     28977.77    329.17282   -18683.507   -32430.205    9.0249882    7.8158691    18.010771    27288.539   -2430.4919 
    2170    344.36847    1270.7171    9.0256299      9.02563    18.012052          120    35159.589    15406.352    26674.988     41.73847   -18580.273   -32373.625    9.0256299    7.8164249    18.012052    25746.976    -2430.557 
    2180    347.55726    1271.0131    9.0263308    9.0263308    18.013451          120    32962.144    15013.874    23764.743   -258.69153   -18394.403   -32462.665    9.0263308    7.8170318    18.013451    23913.587   -2430.6332 
    2190       350.28    1271.3324    9.0270865    9.0270866    18.014959          120    30630.069    14569.059    20424.534   -502.25581    -18058.06   -32681.103    9.0270865    7.8176863    18.014959    21874.554   -2430.6995 
SHAKE stats (type/ave/delta) on step 2200
  1 0.957209 3.92261e-09
  1 104.52 0
    2200    352.53445    1271.6729    9.0278924    9.0278924    18.016567          120    28232.676    14124.755    16776.171   -675.77351   -17603.747   -32968.334    9.0278924    7.8183842    18.016567    19711.201   -2430.7487 
    2210    354.55259    1272.0325    9.0287433    9.0287434    18.018265          120    25685.687    13680.328    12865.261   -756.87926   -16997.528    -33280.95    9.0287433    7.8191211    18.018265    17410.425    -2430.797 
    2220    356.69182     1272.409    9.0296339     9.029634    18.020043          120    23130.376    13113.628    8785.4471   -768.29049   -16308.186    -33598.34    9.0296339    7.8198924    18.020043    15009.817   -2430.8506 
    2230    359.30697       1272.8    9.0305586    9.0305587    18.021888          120    20534.219    12507.189    4638.3139   -708.13534   -15479.031   -33850.894    9.0305586    7.8206933    18.021888    12559.907   -2430.9151 
    2240    362.69055     1273.203    9.0315117    9.0315117     18.02379          120    17928.478    11812.713    531.99345   -639.25759   -14590.427   -34006.529    9.0315117    7.8215186     18.02379    10091.062   -2430.9962 
    2250    366.98298    1273.6156    9.0324873    9.0324874    18.025737          120    15363.293    11116.499   -3502.1231   -502.14986   -13745.783   -34025.082    9.0324873    7.8223635    18.025737    7659.2231   -2431.0914 
    2260    372.13298    1274.0356    9.0334798    9.0334799    18.027718          120    13032.935    10443.134    -7345.176   -397.59432   -12844.711   -33982.869    9.0334798    7.8232231    18.027718    5376.9644   -2431.1788 
    2270    377.92837    1274.4604    9.0344839     9.034484    18.029722          120    10802.436    9713.0655   -11010.732   -302.85387   -11971.479   -33850.391    9.0344839    7.8240927    18.029722    3168.2566   -2431.2901 
    2280    384.08119    1274.8881    9.0354945    9.0354945    18.031738          120    8835.0356    9029.6382   -14418.488   -266.26006   -11195.775   -33684.696    9.0354945    7.8249678    18.031738    1148.7284   -2431.3943 
    2290    390.24972    1275.3166    9.0365067    9.0365067    18.033758          120     6980.643    8322.0494   -17500.927   -302.17819   -10537.873   -33475.176    9.0365067    7.8258444    18.033758   -732.74482   -2431.5105 
SHAKE stats (type/ave/delta) on step 2300
  1 0.957211 4.71656e-09
  1 104.52 0
    2300    396.07217    1275.7441    9.0375162    9.0375162    18.035773          120    5307.6869     7617.382   -20316.269   -363.02823   -10044.223   -33228.452    9.0375162    7.8267187    18.035773   -2463.7335   -2431.6318 
    2310    401.19853    1276.1688    9.0385189     9.038519    18.037774          120    3871.6846    6953.5535   -22805.212    -537.4768   -9687.8281   -33036.648    9.0385189    7.8275871    18.037774   -3993.3246    -2431.733 
    2320    405.31237    1276.5892    9.0395113    9.0395114    18.039755          120    2613.6292    6275.6998   -25062.092   -790.62959   -9462.3678   -32863.223    9.0395113    7.8284465    18.039755   -5390.9209   -2431.8253 
    2330    408.19457    1277.0039    9.0404901    9.0404902    18.041708          120    1545.8148    5624.9161   -27114.223   -1117.5519   -9364.2389    -32725.08    9.0404901    7.8292942    18.041708   -6647.8306    -2431.895 
    2340    409.75726    1277.4118    9.0414524    9.0414525    18.043628          120    675.98293    4912.2721   -28986.657   -1493.4996   -9364.5893    -32572.22    9.0414524    7.8301276    18.043628   -7799.4674   -2431.9382 
    2350    410.03872    1277.8115    9.0423954    9.0423955     18.04551          120    -80.74831    4151.3497    -30838.65   -1892.8004   -9481.0609   -32422.839    9.0423954    7.8309442     18.04551   -8922.6828   -2431.9703 
    2360    409.14123     1278.202    9.0433165    9.0433166    18.047348          120   -750.98796    3323.9634   -32735.211    -2286.619   -9705.3743   -32207.172    9.0433165    7.8317419    18.047348   -10054.079   -2431.9875 
    2370      407.172    1278.5822    9.0442131    9.0442131    18.049138          120   -1307.6322    2469.3924   -34801.183   -2699.0712   -9985.3927   -31993.511    9.0442131    7.8325183    18.049138   -11213.141   -2431.9887 
    2380    404.18138    1278.9509    9.0450824    9.0450824    18.050872          120   -1777.5768    1619.4567   -36906.556   -3120.6522    -10347.81    -31728.54    9.0450824    7.8332712    18.050872   -12354.892   -2431.9552 
    2390    400.19722     1279.307    9.0459218    9.0459218    18.052548          120   -2208.0863    719.24749   -39216.233   -3548.7897   -10802.856   -31547.452    9.0459218    7.8339981    18.052548   -13568.357   -2431.9133 
SHAKE stats (type/ave/delta) on step 2400
  1 0.957208 4.68792e-09
  1 104.52 0
    2400     395.3071    1279.6493    9.0467285    9.0467285    18.054157          120    -2630.811   -117.00675   -41709.897   -3937.6631   -11212.951   -31397.424    9.0467285    7.8346967    18.054157   -14819.238   -2431.8546 
    2410    389.75027    1279.9765    9.0474995    9.0474996    18.055696          120   -3106.4559   -843.64937   -44341.712   -4300.4634   -11676.932   -31290.495    9.0474995    7.8353645    18.055696   -16097.272   -2431.7868 
    2420    383.95233    1280.2874    9.0482319     9.048232    18.057158          120   -3622.6457    -1607.255   -47065.476   -4651.4141   -12203.501   -31208.407    9.0482319    7.8359988    18.057158   -17431.792   -2431.7277 
    2430    378.43756    1280.5806    9.0489226    9.0489227    18.058536          120   -4207.1988   -2303.3575   -49830.791   -4987.7676   -12760.932    -31190.51    9.0489226    7.8365969    18.058536   -18780.449   -2431.6731 
    2440    373.72374    1280.8549    9.0495685    9.0495686    18.059825          120   -4812.5453   -2978.6885   -52548.487   -5233.5625   -13327.255   -31156.115    9.0495685    7.8371563    18.059825    -20113.24    -2431.631 
    2450     370.1459    1281.1088    9.0501664    9.0501665    18.061018          120   -5505.8871    -3524.649    -55141.81   -5492.0142   -13900.475   -31092.037    9.0501664    7.8376741    18.061018   -21390.782   -2431.5996 
    2460    367.74137    1281.3411    9.0507135    9.0507135     18.06211          120   -6173.3536   -3980.3756   -57582.062   -5708.5304   -14472.176   -30974.412    9.0507135    7.8381479     18.06211   -22578.597   -2431.5784 
    2470    366.23296    1281.5507    9.0512068    9.0512069    18.063095          120   -6830.7234   -4362.3534   -59863.503   -5872.4876   -15007.772   -30845.156    9.0512068    7.8385751    18.063095   -23685.527   -2431.5778 
    2480     365.1246    1281.7364     9.051644    9.0516441    18.063967          120   -7430.3632   -4659.9605   -61879.516   -6026.7103   -15527.871   -30641.373     9.051644    7.8389538    18.063967   -24656.613   -2431.5846 
[...]
    9230    76.542249    1296.0483    9.0852097    9.0852097    18.130953          120    12318.097    11201.517   -34797.917   -4150.7837   -9399.0299   -11566.645    9.0852097    7.8680225    18.130953   -3759.4342   -2437.1842 
    9240    76.398164    1295.9597    9.0850028    9.0850029     18.13054          120    12421.075     11484.15   -34384.735   -3931.0932   -9470.1655   -11864.646    9.0850028    7.8678433     18.13054   -3493.1697   -2437.2041 
    9250    75.976766    1295.8677    9.0847879    9.0847879    18.130111          120    12582.451    11864.615   -34003.456   -3738.1827   -9504.2717   -12295.259    9.0847879    7.8676572    18.130111   -3185.4634   -2437.2116 
    9260    75.333641    1295.7726    9.0845656    9.0845657    18.129667          120    12763.125    12309.087   -33570.339   -3514.4421    -9499.655   -12740.218    9.0845656    7.8674647    18.129667   -2832.7088   -2437.2087 
    9270    74.581559    1295.6748    9.0843369     9.084337    18.129211          120    12983.033    12770.746   -33152.809   -3275.4689   -9478.2586   -13218.443    9.0843369    7.8672666    18.129211   -2466.3433   -2437.2041 
    9280    73.850631    1295.5745    9.0841026    9.0841027    18.128743          120    13238.984    13216.102   -32751.884   -3032.8944   -9442.9689    -13718.36    9.0841026    7.8670637    18.128743   -2098.9327   -2437.2013 
    9290    73.249967    1295.4723    9.0838636    9.0838637    18.128267          120    13597.803    13700.064   -32290.133   -2801.4554   -9394.0677   -14195.192    9.0838636    7.8668568    18.128267   -1664.0886   -2437.1799 
SHAKE stats (type/ave/delta) on step 9300
  1 0.957197 4.76447e-11
  1 104.52 0
    9300    72.833185    1295.3685     9.083621    9.0836211    18.127782          120    13923.527    14089.118   -31925.843   -2531.7629   -9372.0009   -14668.984     9.083621    7.8666467    18.127782   -1304.3989   -2437.1862 
    9310    72.591732    1295.2635    9.0833756    9.0833757    18.127293          120    14306.369    14435.135   -31577.354   -2269.3335   -9312.9776   -15152.063    9.0833756    7.8664341    18.127293   -945.28333   -2437.1948 
    9320    72.467632    1295.1577    9.0831283    9.0831284    18.126799          120     14690.82    14784.377    -31169.45   -2045.6934   -9240.9089   -15600.379    9.0831283      7.86622    18.126799   -564.75128   -2437.1994 
    9330    72.367204    1295.0515      9.08288    9.0828801    18.126304          120    15139.004    15060.957   -30734.971   -1822.5391   -9199.6541   -15991.623      9.08288    7.8660049    18.126304   -178.33642   -2437.2045 
    9340    72.201368    1294.9453    9.0826316    9.0826317    18.125808          120    15625.721    15291.374   -30204.967   -1611.6463   -9187.6088   -16359.435    9.0826316    7.8657898    18.125808    237.37594   -2437.2015 
    9350    71.915162    1294.8394    9.0823841    9.0823842    18.125314          120    16083.712    15428.601   -29687.507   -1415.9943   -9159.6291    -16678.34    9.0823841    7.8655755    18.125314    608.26865   -2437.2113 
    9360    71.506639    1294.7343    9.0821384    9.0821385    18.124824          120    16538.743    15599.949   -29124.326   -1266.9364   -9151.6006   -16940.226    9.0821384    7.8653627    18.124824    1004.7886   -2437.2089 
    9370     71.02863    1294.6304    9.0818954    9.0818955    18.124339          120    16991.379    15728.895   -28530.991   -1164.5573   -9139.3118   -17196.195    9.0818954    7.8651522    18.124339    1396.4276   -2437.2036 
    9380    70.567212     1294.528     9.081656    9.0816561    18.123861          120    17267.555    15775.203   -28057.665   -1086.9407   -9124.2211   -17423.226     9.081656    7.8649449    18.123861    1661.6974   -2437.2326 
    9390    70.211723    1294.4275    9.0814209     9.081421    18.123392          120    17597.374    15860.711   -27552.133   -1033.3356    -9193.744   -17651.867    9.0814209    7.8647413    18.123392    1968.6505   -2437.2347 
SHAKE stats (type/ave/delta) on step 9400
  1 0.957198 1.32217e-10
  1 104.52 0
    9400    70.020427    1294.3291    9.0811908    9.0811909    18.122933          120    17856.207    15932.562   -27116.937    -1014.855   -9304.6042   -17873.449    9.0811908    7.8645421    18.122933    2223.9443   -2437.2386 
    9410    70.007047    1294.2331    9.0809664    9.0809664    18.122485          120    18046.575    15981.703   -26772.011   -1027.4906   -9442.8314   -18106.533    9.0809664    7.8643476    18.122485    2418.7557   -2437.2447 
    9420    70.139854    1294.1397    9.0807479     9.080748    18.122049          120     18149.34     16002.29   -26557.464   -1044.6282   -9590.4949   -18365.948    9.0807479    7.8641584    18.122049    2531.3886   -2437.2587 
    9430     70.35413     1294.049    9.0805357    9.0805358    18.121625          120    18205.176    15922.772   -26445.519   -1092.4042   -9777.8921    -18658.28    9.0805357    7.8639747    18.121625    2560.8098   -2437.2796 
    9440    70.579481     1293.961    9.0803299      9.08033    18.121214          120    18130.007    15925.473   -26469.759   -1146.9517   -10032.239   -18908.231    9.0803299    7.8637965    18.121214    2528.5737   -2437.3008 
    9450    70.763164    1293.8757    9.0801304    9.0801305    18.120816          120    17973.684    15918.166   -26584.525   -1236.5717   -10291.586   -19180.277    9.0801304    7.8636237    18.120816     2435.775   -2437.3258 
    9460    70.879607     1293.793     9.079937    9.0799371     18.12043          120    17860.614    15940.174   -26798.059   -1344.3482   -10486.536    -19411.69     9.079937    7.8634562     18.12043    2334.2431   -2437.3352 
    9470    70.926579    1293.7129    9.0797494    9.0797495    18.120056          120     17739.65    15977.054   -27039.852   -1417.5442   -10698.483   -19656.944    9.0797494    7.8632937    18.120056    2225.6173   -2437.3361 
    9480    70.913186     1293.635    9.0795673    9.0795674    18.119692          120    17485.433    16006.872   -27396.722   -1517.4615   -10903.015    -19903.13    9.0795673     7.863136    18.119692    2031.8609   -2437.3563 
    9490    70.844872    1293.5594    9.0793903    9.0793903    18.119339          120    17262.906    16206.268   -27755.188   -1656.5403   -11008.014   -20093.524    9.0793903    7.8629827    18.119339     1904.662   -2437.3474 
SHAKE stats (type/ave/delta) on step 9500
  1 0.957198 5.74252e-10
  1 104.52 0
    9500    70.714847    1293.4857     9.079218    9.0792181    18.118996          120    17057.131    16347.152   -28063.738   -1764.7524   -11098.378   -20217.585     9.079218    7.8628335    18.118996     1780.182   -2437.3401 
    9510    70.502714     1293.414    9.0790503    9.0790503    18.118661          120     16786.61    16546.884   -28382.704     -1863.14   -11164.331   -20283.087    9.0790503    7.8626883    18.118661    1650.2635   -2437.3364 
    9520    70.177569    1293.3441    9.0788867    9.0788867    18.118334          120    16502.532    16720.215   -28685.537   -1977.2172   -11181.242   -20306.536    9.0788867    7.8625466    18.118334    1512.4031   -2437.3385 
    9530    69.715362    1293.2758    9.0787269     9.078727    18.118015          120     16169.09    16944.949   -28885.308   -2073.0945   -11114.379   -20234.374    9.0787269    7.8624082    18.118015     1409.577    -2437.337 
    9540    69.103501    1293.2091    9.0785707    9.0785708    18.117704          120     15879.29    17040.399   -29069.464   -2182.0176   -11051.484     -20089.5    9.0785707    7.8622729    18.117704    1283.4084   -2437.3493 
    9550    68.356753    1293.1438    9.0784178    9.0784179    18.117399          120    15611.549    17192.793   -29067.608    -2358.682   -10918.395   -19941.758    9.0784178    7.8621405    18.117399    1245.5781    -2437.337 
    9560    67.520406    1293.0798    9.0782681    9.0782682      18.1171          120    15335.586    17300.766    -29040.29   -2552.5345   -10729.549   -19725.911    9.0782681    7.8620109      18.1171    1198.6874   -2437.3354 
    9570    66.668793    1293.0171    9.0781214    9.0781215    18.116807          120    15125.367    17324.019   -28917.376   -2780.3047   -10526.709   -19434.566    9.0781214    7.8618839    18.116807    1177.3368   -2437.3336 
    9580    65.886039    1292.9557    9.0779778    9.0779779     18.11652          120    14920.724    17371.084   -28696.209   -3016.1934   -10293.666   -19156.472    9.0779778    7.8617595     18.11652    1198.5332   -2437.3261 
    9590    65.251618    1292.8957    9.0778373    9.0778373     18.11624          120    14827.862    17408.067    -28406.14   -3334.8715   -10051.282   -18830.052    9.0778373    7.8616378     18.11624    1276.5964   -2437.3054 
SHAKE stats (type/ave/delta) on step 9600
  1 0.957199 7.50185e-11
  1 104.52 0
    9600    64.822326     1292.837    9.0776999       9.0777    18.115966          120    14692.787    17273.008   -28075.452   -3608.7358   -9802.3542    -18493.61    9.0776999    7.8615188    18.115966    1296.7811    -2437.313 
    9610    64.616206    1292.7797    9.0775658    9.0775659    18.115698          120    14664.802    17150.692   -27689.172   -3920.8362   -9534.0573   -18176.323    9.0775658    7.8614027    18.115698    1375.4407   -2437.3098 
    9620    64.588861    1292.7239    9.0774352    9.0774353    18.115438          120    14653.187    17007.478   -27293.942   -4249.7346   -9316.3728   -17877.832    9.0774352    7.8612896    18.115438    1455.5744   -2437.3125 
    9630    64.651287    1292.6697    9.0773083    9.0773083    18.115184          120    14669.474    16835.482   -26973.562   -4575.1346   -9144.3373   -17628.253    9.0773083    7.8611796    18.115184    1510.4647   -2437.3256 
    9640    64.688524     1292.617     9.077185    9.0771851    18.114938          120    14762.959    16660.273   -26661.456   -4888.1617   -8975.8581   -17419.068     9.077185    7.8610729    18.114938    1587.2585   -2437.3321 
    9650    64.591408    1292.5661    9.0770658    9.0770658      18.1147          120    14911.901    16461.843   -26429.004   -5196.4524   -8834.1517    -17236.38    9.0770658    7.8609696      18.1147    1648.2468   -2437.3413 
    9660    64.285443    1292.5169    9.0769506    9.0769507     18.11447          120    15127.157    16282.659   -26222.305   -5460.4728   -8713.2413   -17106.296    9.0769506    7.8608699     18.11447    1729.1701   -2437.3389 
    9670    63.747377    1292.4695    9.0768397    9.0768397    18.114249          120    15423.519    16087.539   -26191.607    -5665.563   -8681.0687   -16992.987    9.0768397    7.8607738    18.114249    1773.1508   -2437.3432 
    9680    63.005024     1292.424    9.0767331    9.0767332    18.114036          120    15738.924    15957.834   -26220.435   -5851.2574   -8654.6944   -16961.421    9.0767331    7.8606815    18.114036    1825.4412   -2437.3381 
    9690    62.129158    1292.3804    9.0766311    9.0766312    18.113833          120    16274.284    15849.385   -26321.454   -5969.8853    -8630.552   -16952.252    9.0766311    7.8605932    18.113833    1934.0716   -2437.3028 
SHAKE stats (type/ave/delta) on step 9700
  1 0.957199 5.29331e-10
  1 104.52 0
    9700    61.217551    1292.3388    9.0765338    9.0765338    18.113639          120    16673.029     15762.48   -26551.387   -6061.0779   -8683.0931   -16987.589    9.0765338    7.8605089    18.113639    1961.3737   -2437.2942 
    9710    60.376195    1292.2993    9.0764412    9.0764413    18.113454          120    17081.714    15685.896   -26887.697    -6098.409   -8756.5844   -16987.573    9.0764412    7.8604288    18.113454    1959.9709   -2437.2899 
    9720    59.703298    1292.2618    9.0763535    9.0763536    18.113279          120     17549.11    15668.446   -27291.077   -6060.1759   -8888.0583   -17051.956    9.0763535    7.8603528    18.113279     1975.493     -2437.28 
    9730     59.26796    1292.2264    9.0762706    9.0762706    18.113113          120    18011.894    15640.252   -27722.336   -5949.6708   -9062.7115    -17122.14    9.0762706     7.860281    18.113113    1976.6033   -2437.2776 
    9740     59.11225     1292.193    9.0761925    9.0761925    18.112957          120    18451.578    15618.353    -28212.47   -5830.3529   -9266.0388   -17201.896    9.0761925    7.8602133    18.112957     1952.487   -2437.2871 
    9750    59.254223    1292.1617    9.0761191    9.0761192    18.112811          120    18919.007    15689.883   -28648.117   -5682.4485    -9527.852   -17275.798    9.0761191    7.8601498    18.112811    1986.9242   -2437.2855 
    9760    59.690798    1292.1324    9.0760506    9.0760506    18.112674          120    19366.528     15732.89   -29115.056   -5509.7463   -9779.1426   -17334.035    9.0760506    7.8600904    18.112674    1994.7876   -2437.2985 
    9770    60.404421    1292.1052    9.0759869    9.0759869    18.112547          120    19758.719    15858.664   -29561.139   -5300.0963   -10063.328   -17365.641    9.0759869    7.8600353    18.112547    2018.7479   -2437.3151 
    9780    61.361555    1292.0801     9.075928    9.0759281     18.11243          120    20130.447    15965.392   -29977.201   -5078.2838   -10383.898   -17343.102     9.075928    7.8599843     18.11243    2039.5457   -2437.3408 
    9790      62.5191    1292.0571    9.0758741    9.0758741    18.112322          120    20441.075    16090.622   -30329.378   -4819.4307   -10722.731   -17255.095    9.0758741    7.8599376    18.112322    2067.4397   -2437.3703 
SHAKE stats (type/ave/delta) on step 9800
  1 0.9572 5.14941e-10
  1 104.52 0
    9800     63.82713    1292.0361    9.0758251    9.0758252    18.112224          120    20717.866    16228.626   -30586.514    -4540.965   -11025.692   -17126.639    9.0758251    7.8598952    18.112224    2119.9926   -2437.3951 
    9810    65.226434    1292.0174    9.0757813    9.0757814    18.112137          120    20928.654    16355.476   -30784.476   -4222.3925   -11334.084   -16963.639    9.0757813    7.8598572    18.112137    2166.5512   -2437.4223 
    9820    66.632706    1292.0009    9.0757427    9.0757428     18.11206          120    21080.728    16458.409   -30989.345    -3902.108    -11597.46   -16752.607    9.0757427    7.8598238     18.11206    2183.2637   -2437.4563 
    9830    67.935761    1291.9867    9.0757094    9.0757094    18.111993          120    21175.053    16559.587   -31123.203   -3579.6199   -11817.623   -16550.436    9.0757094    7.8597949    18.111993    2203.8123   -2437.4827 
    9840    69.009387    1291.9747    9.0756813    9.0756814    18.111937          120    21172.237    16635.122   -31290.021    -3262.241   -11993.299   -16360.366    9.0756813    7.8597706    18.111937    2172.4457    -2437.518 
    9850    69.727947     1291.965    9.0756585    9.0756585    18.111892          120    21163.644    16700.512   -31394.851   -2943.5175   -12143.907   -16159.704    9.0756585    7.8597509    18.111892    2156.4349   -2437.5368 
    9860    69.984308    1291.9574    9.0756408    9.0756409    18.111857          120    21075.615    16768.922   -31502.231    -2639.454   -12243.447   -15973.423    9.0756408    7.8597356    18.111857    2114.1023   -2437.5539 
    9870    69.722289    1291.9521    9.0756282    9.0756283    18.111831          120    20964.932     16835.33   -31617.525   -2354.2961   -12351.977   -15814.384    9.0756282    7.8597247    18.111831    2060.9121   -2437.5631 
    9880    68.941464    1291.9488    9.0756205    9.0756206    18.111816          120    20895.548    16905.681   -31742.879    -2092.212   -12419.317   -15687.825    9.0756205     7.859718    18.111816    2019.4498   -2437.5586 
    9890    67.713512    1291.9476    9.0756177    9.0756178     18.11181          120    20856.976    17033.077    -31852.34    -1883.608   -12479.577   -15567.408    9.0756177    7.8597156     18.11181    2012.5707    -2437.535 
SHAKE stats (type/ave/delta) on step 9900
  1 0.9572 1.19201e-11
  1 104.52 0
    9900    66.163273    1291.9484    9.0756197    9.0756197    18.111814          120    20811.998    17127.458   -32047.923   -1665.7887   -12526.388   -15515.434    9.0756197    7.8597173    18.111814    1963.8445   -2437.5207 
    9910     64.44957    1291.9513    9.0756263    9.0756264    18.111828          120    20759.291    17238.329   -32252.068   -1487.2105   -12592.844   -15492.504    9.0756263     7.859723    18.111828    1915.1841   -2437.5077 
    9920    62.731503     1291.956    9.0756376    9.0756376     18.11185          120    20778.143    17372.133   -32457.012   -1304.1761   -12648.115   -15487.574    9.0756376    7.8597328     18.11185    1897.7546   -2437.4887 
    9930    61.147989    1291.9628    9.0756533    9.0756533    18.111881          120     20783.34    17481.374   -32703.757   -1140.5805    -12714.92    -15522.58    9.0756533    7.8597464    18.111881    1853.6522   -2437.4862 
    9940    59.797223    1291.9714    9.0756734    9.0756735    18.111922          120    20910.983    17652.726   -32847.796   -1011.9428    -12807.14   -15585.111    9.0756734    7.8597638    18.111922    1905.3045   -2437.4646 
    9950    58.735945    1291.9819    9.0756981    9.0756981    18.111971          120    21037.249    17795.424   -33020.743    -890.2296   -12899.548   -15610.043    9.0756981    7.8597852    18.111971    1937.3098   -2437.4612 
    9960    57.985106    1291.9944    9.0757274    9.0757274    18.112029          120    21231.206    17965.937   -33137.189   -748.37332   -12998.094   -15635.027    9.0757274    7.8598105    18.112029    2019.9847   -2437.4548 
    9970    57.542477     1292.009    9.0757614    9.0757615    18.112097          120    21470.899    18140.569   -33228.234   -636.58615   -13171.792   -15659.726    9.0757614      7.85984    18.112097    2127.7447   -2437.4521 
    9980    57.391646    1292.0257    9.0758006    9.0758006    18.112175          120    21684.484    18270.751   -33232.274   -507.83828   -13272.996   -15664.336    9.0758006    7.8598739    18.112175     2240.987   -2437.4564 
    9990    57.505549    1292.0446     9.075845     9.075845    18.112264          120    21891.162    18358.013   -33171.434   -387.25712   -13370.823    -15655.27     9.075845    7.8599124    18.112264    2359.2471   -2437.4651 
SHAKE stats (type/ave/delta) on step 10000
  1 0.957201 4.82617e-10
  1 104.52 0
   10000     57.85308     1292.066     9.075895     9.075895    18.112364          120    22102.575    18444.178   -33027.195   -297.39075   -13465.676   -15599.216     9.075895    7.8599557    18.112364    2506.5197   -2437.4656 
Loop time of 32.3683 on 1 procs for 10000 steps with 119 atoms

Performance: 2.669 ns/day, 8.991 hours/ns, 308.944 timesteps/s
99.5% CPU use with 1 MPI tasks x 1 OpenMP threads

MPI task timing breakdown:
Section |  min time  |  avg time  |  max time  |%varavg| %total
---------------------------------------------------------------
Pair    | 12.69      | 12.69      | 12.69      |   0.0 | 39.21
Bond    | 0.0031118  | 0.0031118  | 0.0031118  |   0.0 |  0.01
Kspace  | 9.9418     | 9.9418     | 9.9418     |   0.0 | 30.71
Neigh   | 0.13927    | 0.13927    | 0.13927    |   0.0 |  0.43
Comm    | 0.17849    | 0.17849    | 0.17849    |   0.0 |  0.55
Output  | 2.3569     | 2.3569     | 2.3569     |   0.0 |  7.28
Modify  | 7.0162     | 7.0162     | 7.0162     |   0.0 | 21.68
Other   |            | 0.04215    |            |       |  0.13

Nlocal:    119 ave 119 max 119 min
Histogram: 1 0 0 0 0 0 0 0 0 0
Nghost:    2382 ave 2382 max 2382 min
Histogram: 1 0 0 0 0 0 0 0 0 0
Neighs:    15357 ave 15357 max 15357 min
Histogram: 1 0 0 0 0 0 0 0 0 0

Total # of neighbors = 15357
Ave neighs/atom = 129.05
Ave special neighs/atom = 0.0504202
Neighbor list builds = 109
Dangerous builds = 0
print		" "
 
print		"All done!"
All done!
Total wall time: 0:00:34
