LAMMPS (16 Mar 2018)
  using 1 OpenMP thread(s) per MPI task
# Find minimum energy for Beryl

#----- Initialize Simulation -----
clear
  using 1 OpenMP thread(s) per MPI task
units 		metal
boundary 	p p p
atom_style 	full
variable	etol equal 1e-25
variable 	ftol equal 1e-25
variable 	maxiter equal 5000
variable 	maxeval equal 10000

#----- Create Atoms -----
read_data 	mod/beryl_water_025.xyz
  triclinic box = (0 0 0) to (9.208 7.97436 18.376) with tilt (-4.604 0 0)
  1 by 1 by 1 MPI processor grid
  reading atoms ...
  119 atoms
  scanning bonds ...
  2 = max bonds/atom
  scanning angles ...
  1 = max angles/atom
  reading bonds ...
  2 bonds
  reading angles ...
  1 angles
  2 = max # of 1-2 neighbors
  1 = max # of 1-3 neighbors
  1 = max # of 1-4 neighbors
  2 = max # of special neighbors
replicate 	1  1  1
  triclinic box = (0 0 0) to (9.208 7.97436 18.376) with tilt (-4.604 0 0)
  1 by 1 by 1 MPI processor grid
  119 atoms
  2 bonds
  1 angles
  2 = max # of 1-2 neighbors
  1 = max # of 1-3 neighbors
  1 = max # of 1-4 neighbors
  2 = max # of special neighbors
  Time spent = 0.000381947 secs

#----- Define Interatomic Potential -----
include		mod/potential_main.mod
kspace_style 	pppm/tip4p 1.0e-4
pair_style 	hybrid/overlay morse 5.5 buck 5.5 lj/cut/coul/long 5.5 15 lj/cut/tip4p/long 5 6 1 1 0.1546 15

# Neighbor Style
neighbor	0.3 bin
neigh_modify	delay 0 every 1 check yes

# Minimization style
min_style	cg

# Setup Output
thermo_style	custom	step temp vol cella cellb cellc cellgamma pxx pyy pzz pxy pxz pyz lx ly lz press pe #c_eatoms
thermo_modify	norm no
variable 	myVol equal vol
variable	myCella equal cella
variable	myCellb equal cellb
variable	myCellc equal cellc
variable	myCellgamma equal cellgamma
include 	mod/potential_beryl.mod
# Potential Paramters
pair_coeff    1    1 morse     		  0 	       0           0  # Be Be
pair_coeff    1    1 buck                 0            1           -201.0
pair_coeff    1    1 lj/cut/coul/long	  10120.	0.413
pair_coeff    1    2 morse     		  0 	       0           0  # Be Al
pair_coeff    1    2 buck                 0            1           0
pair_coeff    1    2 lj/cut/coul/long	  0	       0
pair_coeff    1    3 morse     		  0 	       0           0  # Al Si
pair_coeff    1    3 buck                 0            1           0
pair_coeff    1    3 lj/cut/coul/long	  0	       0
pair_coeff    1    4 morse 		  0.239919     2.527420    1.815405	#Be O
pair_coeff    1    4 buck                 0.000000     1.000000   -46.00000
pair_coeff    1    4 lj/cut/coul/long     529.000      0.528
pair_coeff    2    2 morse     		  0 	       0           0  # Al Al
pair_coeff    2    2 buck                 0            1           -492.
pair_coeff    2    2 lj/cut/coul/long	  60423		0.356
pair_coeff    2    3 morse     		  0 	       0           0  # Al si
pair_coeff    2    3 buck                 0            1           0
pair_coeff    2    3 lj/cut/coul/long	  0	       0
pair_coeff    2    4 morse 		  0.361581     1.900442    2.164818	#Al O
pair_coeff    2    4 buck                 0.000000     1.000000   -71.5
pair_coeff    2    4 lj/cut/coul/long     1420.0	0.482
pair_coeff    3    3 morse     		  0 	       0           0  # Si Si
pair_coeff    3    3 buck                 0            1           -282.
pair_coeff    3    3 lj/cut/coul/long	  19730		0.391
pair_coeff    3    4 morse 		  0.340554     2.006700    2.100000	#Si O
pair_coeff    3    4 buck                 0.000000     1.000000   -60.5
pair_coeff    3    4 lj/cut/coul/long     916.		0.504
pair_coeff    4    4 morse     		  0.042395     1.379316    3.618701  # O O
pair_coeff    4    4 buck                 0.000000     1.000000   -16.7
pair_coeff    4    4 lj/cut/coul/long	  3.16		1.05
include 	mod/potential_water.mod
# Potential Paramters

pair_coeff    1    5 morse     		  0. 	       0.           0.  	# Ow Be
pair_coeff    1    5 buck                 0            1           -354.5
pair_coeff    1    5 lj/cut/tip4p/long	  39.637	1.1435
pair_coeff    2    5 morse     		  0 	       0           0  		# Ow Al
pair_coeff    2    5 buck                 0            1           -554.6
pair_coeff    2    5 lj/cut/tip4p/long	  96.854	1.0616
pair_coeff    3    5 morse     		  0 	       0           0  		# Ow Si
pair_coeff    3    5 buck                 0            1           -419.9
pair_coeff    3    5 lj/cut/tip4p/long	  55.345	1.1126
pair_coeff    4    5 morse     		  0 	       0           0  		# Ow O
pair_coeff    4    5 buck                 0            1           -102.9
pair_coeff    4    5 lj/cut/tip4p/long	  0.70042	1.8233
pair_coeff    5    6 morse     		  0 	       0           0  		# Ow Hw
pair_coeff    5    6 buck                 0            1           0
pair_coeff    5    6 lj/cut/tip4p/long	  0.000	      0.0

pair_coeff    5    5 morse     		  0 	       0           0  		# Ow Ow
pair_coeff    5    5 buck                 0            1           -625.4
pair_coeff    5    5 lj/cut/tip4p/long	  0.008038276	3.1589
pair_coeff    1    6 morse     		  0 	       0           0  		# Hw Be
pair_coeff    1    6 buck                 0            1           0
pair_coeff    1    6 lj/cut/tip4p/long	  0.000	      0.0
pair_coeff    2    6 morse     		  0 	       0           0  		# Hw Al
pair_coeff    2    6 buck                 0            1           0
pair_coeff    2    6 lj/cut/tip4p/long	  0.000	      0.0
pair_coeff    3    6 morse     		  0 	       0           0  		# Hw Si
pair_coeff    3    6 buck                 0            1           0
pair_coeff    3    6 lj/cut/tip4p/long	  0.000	      0.0
pair_coeff    4    6 morse     		  0 	       0           0  		# Hw O
pair_coeff    4    6 buck                 0            1           0
pair_coeff    4    6 lj/cut/tip4p/long	  0.000	      0.0
pair_coeff    6    6 morse     		  0 	       0           0  		# Hw Hw
pair_coeff    6    6 buck                 0            1           0
pair_coeff    6    6 lj/cut/tip4p/long	  0.000	      0.0



bond_style	harmonic
angle_style	harmonic
dihedral_style	none
improper_style	none

bond_coeff	1 35.756   	0.95720
angle_coeff	1 3.969		104.520
group		water type 5 6
3 atoms in group water


#------ Define Settings -----

# ----- Run Minimization -----

fix BRX all box/relax iso 1.013

dump MIN all custom 1 min.lammpstrj id type element x y z ix iy iz

minimize	1e-6 1e-6 5000 10000 # Performs actual minimization
PPPM initialization ...
  extracting TIP4P info from pair style
WARNING: System is not charge neutral, net charge = -0.002 (../kspace.cpp:302)
  using 12-bit tables for long-range coulomb (../kspace.cpp:321)
  G vector (1/distance) = 0.208163
  grid = 6 10 10
  stencil order = 5
  estimated absolute RMS force accuracy = 0.000576947
  estimated relative force accuracy = 4.00668e-05
  using double precision FFTs
  3d grid and FFT values/proc = 2475 600
Neighbor list info ...
  update every 1 steps, delay 0 steps, check yes
  max neighbors/atom: 2000, page size: 100000
  master list distance cutoff = 15.6092
  ghost atom cutoff = 15.6092
  binsize = 7.8046, bins = 2 2 3
  4 neighbor lists, perpetual/occasional/extra = 4 0 0
  (1) pair morse, perpetual
      attributes: half, newton on
      pair build: half/bin/newton/tri
      stencil: half/bin/3d/newton/tri
      bin: standard
  (2) pair buck, perpetual, copy from (1)
      attributes: half, newton on
      pair build: copy
      stencil: none
      bin: none
  (3) pair lj/cut/coul/long, perpetual, skip from (1)
      attributes: half, newton on
      pair build: skip
      stencil: none
      bin: none
  (4) pair lj/cut/tip4p/long, perpetual, skip from (1)
      attributes: half, newton on
      pair build: skip
      stencil: none
      bin: none
Per MPI rank memory allocation (min/avg/max) = 11.11 | 11.11 | 11.11 Mbytes
Step Temp Volume Cella Cellb Cellc CellGamma Pxx Pyy Pzz Pxy Pxz Pyz Lx Ly Lz Press PotEng 
       0            0    1349.3116        9.208    9.2080001       18.376          120   -208666.87   -206120.51   -279630.46   -678.00215   -2301.8057    492.81519        9.208     7.974362       18.376   -231472.62   -2412.9425 
     331            0    1220.2669    8.9045676    8.9045677    17.770453          120    2271.8187    3762.3523   -93033.505    22.138262    -850.2251   -133.14654    8.9045676    7.7115819    17.770453   -28999.778   -2424.9195 
Loop time of 1.75049 on 1 procs for 331 steps with 119 atoms

100.0% CPU use with 1 MPI tasks x 1 OpenMP threads

Minimization stats:
  Stopping criterion = energy tolerance
  Energy initial, next-to-last, final = 
        -2412.94254816     -2424.91946582     -2424.91959858
  Force two-norm initial, final = 585.029 70.6588
  Force max component initial, final = 584.823 68.5217
  Final line search alpha, max atom move = 4.55666e-08 3.1223e-06
  Iterations, force evaluations = 331 337

MPI task timing breakdown:
Section |  min time  |  avg time  |  max time  |%varavg| %total
---------------------------------------------------------------
Pair    | 1.4875     | 1.4875     | 1.4875     |   0.0 | 84.98
Bond    | 0.00017381 | 0.00017381 | 0.00017381 |   0.0 |  0.01
Kspace  | 0.07546    | 0.07546    | 0.07546    |   0.0 |  4.31
Neigh   | 0.017552   | 0.017552   | 0.017552   |   0.0 |  1.00
Comm    | 0.014271   | 0.014271   | 0.014271   |   0.0 |  0.82
Output  | 0.059231   | 0.059231   | 0.059231   |   0.0 |  3.38
Modify  | 0          | 0          | 0          |   0.0 |  0.00
Other   |            | 0.09626    |            |       |  5.50

Nlocal:    119 ave 119 max 119 min
Histogram: 1 0 0 0 0 0 0 0 0 0
Nghost:    8301 ave 8301 max 8301 min
Histogram: 1 0 0 0 0 0 0 0 0 0
Neighs:    86543 ave 86543 max 86543 min
Histogram: 1 0 0 0 0 0 0 0 0 0

Total # of neighbors = 86543
Ave neighs/atom = 727.252
Ave special neighs/atom = 0.0504202
Neighbor list builds = 5
Dangerous builds = 0
undump MIN

reset_timestep	0
timestep 0.001

velocity        all create 300.0 87287 loop geom
fix		2 water shake 0.0001 20 100  b 1 a 1
  0 = # of size 2 clusters
  0 = # of size 3 clusters
  0 = # of size 4 clusters
  1 = # of frozen angles
fix		1 all npt temp 300.0 30.0 .1 iso 1.013 1.013 1.0

dump TRJ all custom 1 dump.lammpstrj id type element x y z ix iy iz
dump_modify TRJ sort 1 element Be Al Si O H O

run 		10000
PPPM initialization ...
  extracting TIP4P info from pair style
  using 12-bit tables for long-range coulomb (../kspace.cpp:321)
  G vector (1/distance) = 0.206247
  grid = 6 10 9
  stencil order = 5
  estimated absolute RMS force accuracy = 0.000726029
  estimated relative force accuracy = 5.04199e-05
  using double precision FFTs
  3d grid and FFT values/proc = 2310 540
Neighbor list info ...
  update every 1 steps, delay 0 steps, check yes
  max neighbors/atom: 2000, page size: 100000
  master list distance cutoff = 15.6092
  ghost atom cutoff = 15.6092
  binsize = 7.8046, bins = 2 1 3
  4 neighbor lists, perpetual/occasional/extra = 4 0 0
  (1) pair morse, perpetual
      attributes: half, newton on
      pair build: half/bin/newton/tri
      stencil: half/bin/3d/newton/tri
      bin: standard
  (2) pair buck, perpetual, copy from (1)
      attributes: half, newton on
      pair build: copy
      stencil: none
      bin: none
  (3) pair lj/cut/coul/long, perpetual, skip from (1)
      attributes: half, newton on
      pair build: skip
      stencil: none
      bin: none
  (4) pair lj/cut/tip4p/long, perpetual, skip from (1)
      attributes: half, newton on
      pair build: skip
      stencil: none
      bin: none
SHAKE stats (type/ave/delta) on step 0
  1 0.966824 2.41389e-05
  1 109.466 0
Per MPI rank memory allocation (min/avg/max) = 11.66 | 11.66 | 11.66 Mbytes
Step Temp Volume Cella Cellb Cellc CellGamma Pxx Pyy Pzz Pxy Pxz Pyz Lx Ly Lz Press PotEng 
       0     302.5641    1220.2669    8.9045676    8.9045677    17.770453          120    4395.8419    7223.1924   -90422.873   -779.68586   -2513.3307   -239.87873    8.9045676    7.7115819    17.770453   -26267.946   -2424.9602 
SHAKE stats (type/ave/delta) on step 100
  1 0.95737 7.88728e-06
  1 104.52 0
SHAKE stats (type/ave/delta) on step 200
  1 0.956976 4.04933e-06
  1 104.52 0
SHAKE stats (type/ave/delta) on step 300
  1 0.957211 6.37021e-06
  1 104.52 0
SHAKE stats (type/ave/delta) on step 400
  1 0.957268 2.18061e-07
  1 104.52 0
SHAKE stats (type/ave/delta) on step 500
  1 0.957167 1.79216e-07
  1 104.52 0
SHAKE stats (type/ave/delta) on step 600
  1 0.957278 2.45923e-08
  1 104.52 0
SHAKE stats (type/ave/delta) on step 700
  1 0.957168 5.87827e-07
  1 104.52 0
SHAKE stats (type/ave/delta) on step 800
  1 0.957186 1.38683e-08
  1 104.52 0
SHAKE stats (type/ave/delta) on step 900
  1 0.957207 1.61869e-08
  1 104.52 0
SHAKE stats (type/ave/delta) on step 1000
  1 0.957238 6.2904e-07
  1 104.52 0
SHAKE stats (type/ave/delta) on step 1100
  1 0.957176 1.2428e-07
  1 104.52 0
SHAKE stats (type/ave/delta) on step 1200
  1 0.957246 2.668e-07
  1 104.52 0
SHAKE stats (type/ave/delta) on step 1300
  1 0.957226 3.00063e-07
  1 104.52 0
SHAKE stats (type/ave/delta) on step 1400
  1 0.957168 1.96136e-07
  1 104.52 0
SHAKE stats (type/ave/delta) on step 1500
  1 0.957213 3.12644e-09
  1 104.52 0
SHAKE stats (type/ave/delta) on step 1600
  1 0.957184 1.00654e-07
  1 104.52 0
SHAKE stats (type/ave/delta) on step 1700
  1 0.957268 5.80958e-08
  1 104.52 0
SHAKE stats (type/ave/delta) on step 1800
  1 0.957202 7.05075e-08
  1 104.52 0
SHAKE stats (type/ave/delta) on step 1900
  1 0.957163 2.3155e-07
  1 104.52 0
SHAKE stats (type/ave/delta) on step 2000
  1 0.95721 3.54954e-07
  1 104.52 0
SHAKE stats (type/ave/delta) on step 2100
  1 0.957162 2.53547e-07
  1 104.52 0
SHAKE stats (type/ave/delta) on step 2200
  1 0.957258 9.64241e-08
  1 104.52 0
SHAKE stats (type/ave/delta) on step 2300
  1 0.957157 3.14841e-07
  1 104.52 0
SHAKE stats (type/ave/delta) on step 2400
  1 0.957178 5.19515e-08
  1 104.52 0
SHAKE stats (type/ave/delta) on step 2500
  1 0.957266 1.21814e-07
  1 104.52 0
SHAKE stats (type/ave/delta) on step 2600
  1 0.95713 3.24422e-08
  1 104.52 0
SHAKE stats (type/ave/delta) on step 2700
  1 0.957189 1.53309e-07
  1 104.52 0
SHAKE stats (type/ave/delta) on step 2800
  1 0.957223 1.09065e-07
  1 104.52 0
SHAKE stats (type/ave/delta) on step 2900
  1 0.957125 5.96307e-09
  1 104.52 0
SHAKE stats (type/ave/delta) on step 3000
  1 0.957287 2.01966e-07
  1 104.52 0
SHAKE stats (type/ave/delta) on step 3100
  1 0.957211 7.49585e-07
  1 104.52 0
SHAKE stats (type/ave/delta) on step 3200
  1 0.95715 2.47976e-07
  1 104.52 0
SHAKE stats (type/ave/delta) on step 3300
  1 0.957197 1.28151e-08
  1 104.52 0
SHAKE stats (type/ave/delta) on step 3400
  1 0.95722 5.37946e-07
  1 104.52 0
SHAKE stats (type/ave/delta) on step 3500
  1 0.957187 3.91927e-08
  1 104.52 0
SHAKE stats (type/ave/delta) on step 3600
  1 0.957176 2.31909e-07
  1 104.52 0
SHAKE stats (type/ave/delta) on step 3700
  1 0.957263 2.78317e-07
  1 104.52 0
SHAKE stats (type/ave/delta) on step 3800
  1 0.957211 6.29043e-08
  1 104.52 0
SHAKE stats (type/ave/delta) on step 3900
  1 0.957142 1.27098e-07
  1 104.52 0
SHAKE stats (type/ave/delta) on step 4000
  1 0.957256 7.09486e-07
  1 104.52 0
SHAKE stats (type/ave/delta) on step 4100
  1 0.957198 2.78989e-07
  1 104.52 0
SHAKE stats (type/ave/delta) on step 4200
  1 0.957186 5.44669e-09
  1 104.52 0
SHAKE stats (type/ave/delta) on step 4300
  1 0.95721 7.61027e-08
  1 104.52 0
SHAKE stats (type/ave/delta) on step 4400
  1 0.957179 9.61883e-07
  1 104.52 0
SHAKE stats (type/ave/delta) on step 4500
  1 0.957195 1.82652e-07
  1 104.52 0
SHAKE stats (type/ave/delta) on step 4600
  1 0.957237 3.13578e-07
  1 104.52 0
SHAKE stats (type/ave/delta) on step 4700
  1 0.957118 4.53015e-08
  1 104.52 0
SHAKE stats (type/ave/delta) on step 4800
  1 0.957208 9.92361e-08
  1 104.52 0
SHAKE stats (type/ave/delta) on step 4900
  1 0.957243 1.4552e-07
  1 104.52 0
SHAKE stats (type/ave/delta) on step 5000
  1 0.957163 1.63757e-07
  1 104.52 0
SHAKE stats (type/ave/delta) on step 5100
  1 0.957189 1.42556e-07
  1 104.52 0
SHAKE stats (type/ave/delta) on step 5200
  1 0.957203 9.15426e-08
  1 104.52 0
SHAKE stats (type/ave/delta) on step 5300
  1 0.957236 4.1631e-07
  1 104.52 0
SHAKE stats (type/ave/delta) on step 5400
  1 0.957179 1.2563e-07
  1 104.52 0
SHAKE stats (type/ave/delta) on step 5500
  1 0.957217 7.59181e-08
  1 104.52 0
SHAKE stats (type/ave/delta) on step 5600
  1 0.957175 1.34864e-07
  1 104.52 0
SHAKE stats (type/ave/delta) on step 5700
  1 0.957201 9.0334e-08
  1 104.52 0
SHAKE stats (type/ave/delta) on step 5800
  1 0.957208 8.96101e-08
  1 104.52 0
SHAKE stats (type/ave/delta) on step 5900
  1 0.957184 8.24487e-08
  1 104.52 0
SHAKE stats (type/ave/delta) on step 6000
  1 0.957213 5.32466e-08
  1 104.52 0
SHAKE stats (type/ave/delta) on step 6100
  1 0.957228 6.18978e-08
  1 104.52 0
SHAKE stats (type/ave/delta) on step 6200
  1 0.957184 1.69656e-07
  1 104.52 0
SHAKE stats (type/ave/delta) on step 6300
  1 0.957222 8.29108e-07
  1 104.52 0
SHAKE stats (type/ave/delta) on step 6400
  1 0.957209 2.59557e-08
  1 104.52 0
SHAKE stats (type/ave/delta) on step 6500
  1 0.95721 9.37842e-08
  1 104.52 0
SHAKE stats (type/ave/delta) on step 6600
  1 0.957165 1.17695e-06
  1 104.52 0
SHAKE stats (type/ave/delta) on step 6700
  1 0.957199 1.43052e-08
  1 104.52 0
SHAKE stats (type/ave/delta) on step 6800
  1 0.957252 3.14479e-08
  1 104.52 0
SHAKE stats (type/ave/delta) on step 6900
  1 0.957212 1.05809e-08
  1 104.52 0
SHAKE stats (type/ave/delta) on step 7000
  1 0.957142 6.12283e-08
  1 104.52 0
SHAKE stats (type/ave/delta) on step 7100
  1 0.957257 1.2294e-06
  1 104.52 0
SHAKE stats (type/ave/delta) on step 7200
  1 0.957152 4.57682e-08
  1 104.52 0
SHAKE stats (type/ave/delta) on step 7300
  1 0.957243 6.50179e-08
  1 104.52 0
SHAKE stats (type/ave/delta) on step 7400
  1 0.957165 1.33284e-07
  1 104.52 0
SHAKE stats (type/ave/delta) on step 7500
  1 0.957223 7.50941e-08
  1 104.52 0
SHAKE stats (type/ave/delta) on step 7600
  1 0.957192 1.12185e-07
  1 104.52 0
SHAKE stats (type/ave/delta) on step 7700
  1 0.957192 1.41093e-07
  1 104.52 0
SHAKE stats (type/ave/delta) on step 7800
  1 0.957194 1.22832e-07
  1 104.52 0
SHAKE stats (type/ave/delta) on step 7900
  1 0.95723 3.53667e-08
  1 104.52 0
SHAKE stats (type/ave/delta) on step 8000
  1 0.957167 4.72123e-08
  1 104.52 0
SHAKE stats (type/ave/delta) on step 8100
  1 0.957227 9.5945e-08
  1 104.52 0
SHAKE stats (type/ave/delta) on step 8200
  1 0.95719 3.03328e-07
  1 104.52 0
SHAKE stats (type/ave/delta) on step 8300
  1 0.957246 1.71875e-07
  1 104.52 0
SHAKE stats (type/ave/delta) on step 8400
  1 0.957176 7.19672e-08
  1 104.52 0
SHAKE stats (type/ave/delta) on step 8500
  1 0.957153 1.94593e-08
  1 104.52 0
SHAKE stats (type/ave/delta) on step 8600
  1 0.957218 1.10266e-07
  1 104.52 0
SHAKE stats (type/ave/delta) on step 8700
  1 0.957196 4.99615e-08
  1 104.52 0
SHAKE stats (type/ave/delta) on step 8800
  1 0.957214 5.86989e-08
  1 104.52 0
SHAKE stats (type/ave/delta) on step 8900
  1 0.957192 2.12292e-07
  1 104.52 0
SHAKE stats (type/ave/delta) on step 9000
  1 0.957212 1.44758e-07
  1 104.52 0
SHAKE stats (type/ave/delta) on step 9100
  1 0.957162 6.87009e-08
  1 104.52 0
SHAKE stats (type/ave/delta) on step 9200
  1 0.957247 1.13596e-07
  1 104.52 0
SHAKE stats (type/ave/delta) on step 9300
  1 0.957169 2.07977e-07
  1 104.52 0
SHAKE stats (type/ave/delta) on step 9400
  1 0.957204 7.33135e-08
  1 104.52 0
SHAKE stats (type/ave/delta) on step 9500
  1 0.957184 3.5058e-08
  1 104.52 0
SHAKE stats (type/ave/delta) on step 9600
  1 0.957211 4.99214e-08
  1 104.52 0
SHAKE stats (type/ave/delta) on step 9700
  1 0.957207 2.22922e-07
  1 104.52 0
SHAKE stats (type/ave/delta) on step 9800
  1 0.957212 8.90729e-08
  1 104.52 0
SHAKE stats (type/ave/delta) on step 9900
  1 0.957189 1.11485e-07
  1 104.52 0
SHAKE stats (type/ave/delta) on step 10000
  1 0.957209 1.62273e-07
  1 104.52 0
   10000    33.461582    1278.2069    9.0433281    9.0433282    18.047372          120    38584.157    85.044558   -30885.688    406.11918    2743.9458    12296.814    9.0433281     7.831752    18.047372    2594.5044   -2438.3641 
Loop time of 44.9929 on 1 procs for 10000 steps with 119 atoms

Performance: 19.203 ns/day, 1.250 hours/ns, 222.257 timesteps/s
99.8% CPU use with 1 MPI tasks x 1 OpenMP threads

MPI task timing breakdown:
Section |  min time  |  avg time  |  max time  |%varavg| %total
---------------------------------------------------------------
Pair    | 36.836     | 36.836     | 36.836     |   0.0 | 81.87
Bond    | 0.0022211  | 0.0022211  | 0.0022211  |   0.0 |  0.00
Kspace  | 1.9787     | 1.9787     | 1.9787     |   0.0 |  4.40
Neigh   | 2.8978     | 2.8978     | 2.8978     |   0.0 |  6.44
Comm    | 0.48132    | 0.48132    | 0.48132    |   0.0 |  1.07
Output  | 1.7611     | 1.7611     | 1.7611     |   0.0 |  3.91
Modify  | 0.95379    | 0.95379    | 0.95379    |   0.0 |  2.12
Other   |            | 0.08155    |            |       |  0.18

Nlocal:    119 ave 119 max 119 min
Histogram: 1 0 0 0 0 0 0 0 0 0
Nghost:    8001 ave 8001 max 8001 min
Histogram: 1 0 0 0 0 0 0 0 0 0
Neighs:    82892 ave 82892 max 82892 min
Histogram: 1 0 0 0 0 0 0 0 0 0

Total # of neighbors = 82892
Ave neighs/atom = 696.571
Ave special neighs/atom = 0.0504202
Neighbor list builds = 901
Dangerous builds = 0
print		" "
 
print		"All done!"
All done!
Total wall time: 0:00:46
