created by fftool

61  atoms
6 atom types
2 bonds
1 bond types
1 angles
1 angle types
0.000000 100.0003dsxlo xhi
0.000000 100.000000 ylo yhi
0.000000 100.000000 zlo zhi
   -4.60400000     0.00000000     0.00000000 xy xz yz
    0.00000000     9.20800000 xlo xhi
    0.00000000     7.97436200 ylo yhi
    0.00000000     9.18800000 zlo zhi

Masses

	1	9.012 	# Be  
	2	28.982	# Al 
	3	28.085	# Si 
	4	15.999	# O
	5	1.008	# Hw
	6	15.999	# Ow		
 
Atoms

      1       1    1   1.7560      4.604000092         0.000000000         2.296999931  # Be Be
      2       2    1   1.7560      4.604000092         0.000000000         6.890999794  # Be Be
      3       3    1   1.7560     -2.302000046         3.987181038         2.296999931  # Be Be
      4       4    1   1.7560     -2.302000046         3.987181038         6.890999794  # Be Be
      5       5    1   1.7560      2.302000046         3.987181038         2.296999931  # Be Be
      6       6    1   1.7560      2.302000046         3.987181038         6.890999794  # Be Be
      7       7    2   2.7202      0.000000000         5.316241543         2.296999931  # Al Al
      8       8    2   2.7202      4.603999817         2.658120534         6.890999794  # Al Al
      9       9    2   2.7202      4.603999817         2.658120534         2.296999931  # Al Al
     10      10    2   2.7202      0.000000000         5.316241543         6.890999794  # Al Al
     11      11    3   2.3969      3.038654828         0.921266577         0.000000000  # Si Si
     12      12    3   2.3969      1.565345641         7.053095797         0.000000000  # Si Si
     13      13    3   2.3969      6.890832956         2.170918808         0.000000000  # Si Si
     14      14    3   2.3969     -2.286832521         5.803443269         0.000000000  # Si Si
     15      15    3   2.3969      3.882512868         4.882176989         0.000000000  # Si Si
     16      16    3   2.3969      0.721486949         3.092185563         0.000000000  # Si Si
     17      17    3   2.3969     -0.721487155         3.092185563         4.593999863  # Si Si
     18      18    3   2.3969      5.325487315         4.882176989         4.593999863  # Si Si
     19      19    3   2.3969     -1.565345641         7.053095797         4.593999863  # Si Si
     20      20    3   2.3969      6.169345561         0.921266577         4.593999863  # Si Si
     21      21    3   2.3969      2.286832864         5.803443269         4.593999863  # Si Si
     22      22    3   2.3969      2.317167776         2.170918808         4.593999863  # Si Si
     23      23    4  -1.1373      1.757425292         1.873574398         0.000000000  # O1 O1
     24      24    4  -1.1373      2.846574868         6.100787560         0.000000000  # O1 O1
     25      25    4  -1.1373      6.706724444         0.585187631         0.000000000  # O1 O1
     26      26    4  -1.1373     -2.102724490         7.389174446         0.000000000  # O1 O1
     27      27    4  -1.1373      5.347850607         5.515599929         0.000000000  # O1 O1
     28      28    4  -1.1373     -0.743850515         2.458762147         0.000000000  # O1 O1
     29      29    4  -1.1373      0.743850378         2.458762147         4.593999863  # O1 O1
     30      30    4  -1.1373      3.860149576         5.515599929         4.593999863  # O1 O1
     31      31    4  -1.1373     -2.846574868         6.100787560         4.593999863  # O1 O1
     32      32    4  -1.1373      7.450575028         1.873574398         4.593999863  # O1 O1
     33      33    4  -1.1373      2.102724352         7.389174446         4.593999863  # O1 O1
     34      34    4  -1.1373      2.501275739         0.585187631         4.593999863  # O1 O1
     35      35    4  -1.5222      3.926287215         1.156973448         1.343200001  # O2 O2
     36      36    4  -1.5222      0.677713425         6.817388153         7.844799587  # O2 O2
     37      37    4  -1.5222      6.242887766         2.821777509         1.343200001  # O2 O2
     38      38    4  -1.5222     -1.638888223         5.152584567         7.844799587  # O2 O2
     39      39    4  -1.5222      3.642825019         3.995611119         1.343200001  # O2 O2
     40      40    4  -1.5222      0.961174936         3.978751195         7.844799587  # O2 O2
     41      41    4  -1.5222      0.677713425         6.817388153         1.343200001  # O2 O2
     42      42    4  -1.5222      3.926287215         1.156973448         7.844799587  # O2 O2
     43      43    4  -1.5222     -1.638888223         5.152584567         1.343200001  # O2 O2
     44      44    4  -1.5222      6.242887766         2.821777509         7.844799587  # O2 O2
     45      45    4  -1.5222      0.961174936         3.978751195         1.343200001  # O2 O2
     46      46    4  -1.5222      3.642825019         3.995611119         7.844799587  # O2 O2
     47      47    4  -1.5222     -0.961175210         3.978751195         3.250799998  # O2 O2
     48      48    4  -1.5222      5.565174615         3.995611119         5.937200001  # O2 O2
     49      49    4  -1.5222     -0.677712876         6.817388153         3.250799998  # O2 O2
     50      50    4  -1.5222      5.281713242         1.156973448         5.937200001  # O2 O2
     51      51    4  -1.5222      1.638888223         5.152584567         3.250799998  # O2 O2
     52      52    4  -1.5222      2.965112143         2.821777509         5.937200001  # O2 O2
     53      53    4  -1.5222      5.565174615         3.995611119         3.250799998  # O2 O2
     54      54    4  -1.5222     -0.961175210         3.978751195         5.937200001  # O2 O2
     55      55    4  -1.5222      5.281713242         1.156973448         3.250799998  # O2 O2
     56      56    4  -1.5222     -0.677712876         6.817388153         5.937200001  # O2 O2
     57      57    4  -1.5222      2.965112143         2.821777509         3.250799998  # O2 O2
     58      58    4  -1.5222      1.638888223         5.152584567         5.937200001  # O2 O2
     59	     59    6  -0.8476         0.000000000         0.000000000         2.296999931  # Ow Ow
     60      60    5   0.4238	   0.391004793         -0.436709313         3.053699198  # Hw Hw	 
     61      61    5   0.4238	   0.391004793         -0.436709313         1.540300664  # Hw Hw	

Bonds

      1   1       59       60
      2   1       59       61

Angles

      1   1       60       59       61
