LAMMPS (16 Mar 2018)
# Fin dminimud floating point parameter in input script or data file (../fix_nh.cpp:132)energy for Beryl

#----- Initialize Simulation -----
clear
units 		metal
boundary 	p p p
atom_style 	full
bond_style	none
variable	etol equal 1e-25
variable 	ftol equal 1e-25
variable 	maxiter equal 5000
variable 	maxeval equal 10000
variable	probeTemp equal 1800

#----- Create Atoms -----
read_data 	beryl_water_050.mod
  triclinic box = (0 0 0) to (9.208 7.97436 18.376) with tilt (-4.604 0 0)
  1 by 1 by 1 MPI processor grid
  reading atoms ...
  122 atoms
  scanning bonds ...
  2 = max bonds/atom
  scanning angles ...
  1 = max angles/atom
  reading bonds ...
  4 bonds
  reading angles ...
  2 angles
  2 = max # of 1-2 neighbors
  1 = max # of 1-3 neighbors
  1 = max # of 1-4 neighbors
  2 = max # of special neighbors
replicate 	8 8 2
  triclinic box = (0 0 0) to (73.664 63.7949 36.752) with tilt (-36.832 0 0)
  1 by 1 by 1 MPI processor grid
  15616 atoms
  512 bonds
  256 angles
  2 = max # of 1-2 neighbors
  1 = max # of 1-3 neighbors
  1 = max # of 1-4 neighbors
  2 = max # of special neighbors
  Time spent = 0.00698805 secs

#----- Define Interatomic Potential -----
include 	potential_main.mod
kspace_style 	pppm 1.0e-4

# Neighbor Style
neighbor	0.3 bin
neigh_modify	delay 0 every 1 check yes

# Minimization style
min_style	cg

# Setup Output
thermo		10
thermo_style	custom	step temp vol cella cellb cellc cellgamma pxx pyy pzz pxy pxz pyz lx ly lz press pe #c_eatoms
thermo_modify	norm no
variable 	myVol equal vol
variable	myCella equal cella
variable	myCellb equal cellb
variable	myCellc equal cellc
variable	myCellgamma equal cellgamma
include 	potential_beryl.mod
# Potential Paramters
pair_style 	hybrid/overlay morse 5.5 buck 5.5 lj/cut/coul/long 5.5 15.0
pair_coeff    1    1 morse     		  0 	       0           0  # Be Be
pair_coeff    1    1 buck                 0            1           -201.0
pair_coeff    1    1 lj/cut/coul/long	  10120.	0.413
pair_coeff    1    2 morse     		  0 	       0           0  # Be Al
pair_coeff    1    2 buck                 0            1           0
pair_coeff    1    2 lj/cut/coul/long	  0	       0
pair_coeff    1    3 morse     		  0 	       0           0  # Al Si
pair_coeff    1    3 buck                 0            1           0
pair_coeff    1    3 lj/cut/coul/long	  0	       0
pair_coeff    1    4 morse 		  0.239919     2.527420    1.815405	#Be O
pair_coeff    1    4 buck                 0.000000     1.000000   -46.00000
pair_coeff    1    4 lj/cut/coul/long     529.000      0.528
pair_coeff    2    2 morse     		  0 	       0           0  # Al Al
pair_coeff    2    2 buck                 0            1           -492.
pair_coeff    2    2 lj/cut/coul/long	  60423		0.356
pair_coeff    2    3 morse     		  0 	       0           0  # Al si
pair_coeff    2    3 buck                 0            1           0
pair_coeff    2    3 lj/cut/coul/long	  0	       0
pair_coeff    2    4 morse 		  0.361581     1.900442    2.164818	#Al O
pair_coeff    2    4 buck                 0.000000     1.000000   -71.5
pair_coeff    2    4 lj/cut/coul/long     1420.0	0.482
pair_coeff    3    3 morse     		  0 	       0           0  # Si Si
pair_coeff    3    3 buck                 0            1           -282.
pair_coeff    3    3 lj/cut/coul/long	  19730		0.391
pair_coeff    3    4 morse 		  0.340554     2.006700    2.100000	#Si O
pair_coeff    3    4 buck                 0.000000     1.000000   -60.5
pair_coeff    3    4 lj/cut/coul/long     916.		0.504
pair_coeff    4    4 morse     		  0.042395     1.379316    3.618701  # O O
pair_coeff    4    4 buck                 0.000000     1.000000   -16.7
pair_coeff    4    4 lj/cut/coul/long	  3.16		1.05
include 	potential_water.mod
# Potential Paramters

pair_coeff    1    6 morse     		  0. 	       0.           0.  		# Ow Be
pair_coeff    1    6 buck                 0            1           -354.5
pair_coeff    1    6 lj/cut/coul/long	  39.637	1.1435
pair_coeff    2    6 morse     		  0 	       0           0  		# Ow Al
pair_coeff    2    6 buck                 0            1           -554.6
pair_coeff    2    6 lj/cut/coul/long	  96.854	1.0616
pair_coeff    3    6 morse     		  0 	       0           0  		# Ow Si
pair_coeff    3    6 buck                 0            1           -419.9
pair_coeff    3    6 lj/cut/coul/long	  55.345	1.1126
pair_coeff    4    6 morse     		  0 	       0           0  		# Ow O
pair_coeff    4    6 buck                 0            1           -102.9
pair_coeff    4    6 lj/cut/coul/long	  0.70042	1.8233
pair_coeff    5    6 morse     		  0 	       0           0  # Hw Hw
pair_coeff    5    6 buck                 0            1           0
pair_coeff    5    6 lj/cut/coul/long	  0.000	      0.0
pair_coeff    6    6 morse     		  0 	       0           0  		# Ow Ow
pair_coeff    6    6 buck                 0            1           -625.4
pair_coeff    6    6 lj/cut/coul/long	  0.15525	3.166
pair_coeff    1    5 morse     		  0 	       0           0  # Hw Hw
pair_coeff    1    5 buck                 0            1           0
pair_coeff    1    5 lj/cut/coul/long	  0.000	      0.0
pair_coeff    2    5 morse     		  0 	       0           0  # Hw Hw
pair_coeff    2    5 buck                 0            1           0
pair_coeff    2    5 lj/cut/coul/long	  0.000	      0.0
pair_coeff    3    5 morse     		  0 	       0           0  # Hw Hw
pair_coeff    3    5 buck                 0            1           0
pair_coeff    3    5 lj/cut/coul/long	  0.000	      0.0
pair_coeff    4    5 morse     		  0 	       0           0  # Hw Hw
pair_coeff    4    5 buck                 0            1           0
pair_coeff    4    5 lj/cut/coul/long	  0.000	      0.0
pair_coeff    5    5 morse     		  0 	       0           0  # Hw Hw
pair_coeff    5    5 buck                 0            1           0
pair_coeff    5    5 lj/cut/coul/long	  0.000	      0.0



bond_style	harmonic
angle_style	harmonic
dihedral_style	none
improper_style	none

bond_coeff	1 1000.00 1.000
angle_coeff	1 100.0 109.47


#------ Define Settings -----

# ----- Run Minimization -----
fix 		BRX all box/relax iso 1.013
minimize	1e-25 1e-25 5000 10000 # Performs actual minimization
PPPM initialization ...
WARNING: System is not charge neutral, net charge = -0.3072 (../kspace.cpp:302)
  using 12-bit tables for long-range coulomb (../kspace.cpp:321)
  G vector (1/distance) = 0.201673
  grid = 36 50 24
  stencil order = 5
  estimated absolute RMS force accuracy = 0.00103635
  estimated relative force accuracy = 7.19705e-05
  using double precision FFTs
  3d grid and FFT values/proc = 65395 43200
Neighbor list info ...
  update every 1 steps, delay 0 steps, check yes
  max neighbors/atom: 2000, page size: 100000
  master list distance cutoff = 15.3
  ghost atom cutoff = 15.3
  binsize = 7.65, bins = 15 9 5
  3 neighbor lists, perpetual/occasional/extra = 3 0 0
  (1) pair morse, perpetual
      attributes: half, newton on
      pair build: half/bin/newton/tri
      stencil: half/bin/3d/newton/tri
      bin: standard
  (2) pair buck, perpetual, copy from (1)
      attributes: half, newton on
      pair build: copy
      stencil: none
      bin: none
  (3) pair lj/cut/coul/long, perpetual, copy from (1)
      attributes: half, newton on
      pair build: copy
      stencil: none
      bin: none
Per MPI rank memory allocation (min/avg/max) = 164.1 | 164.1 | 164.1 Mbytes
Step Temp Volume Cella Cellb Cellc CellGamma Pxx Pyy Pzz Pxy Pxz Pyz Lx Ly Lz Press PotEng 
       0            0    172711.88       73.664    73.664001       36.752          120   -204245.91   -203525.55    -275634.7    26.375631    294.39141    117.85324       73.664    63.794896       36.752   -227802.05    -308824.7 
      10            0    172194.26    73.590336    73.590337    36.715248          120   -196205.61   -197463.87   -267858.84     1175.519    2868.6789   -906.67467    73.590336    63.731101    36.715248   -220509.44   -308932.84 
      20            0    171677.68    73.516672    73.516673    36.678496          120   -187037.31   -190278.05   -259697.15    2328.8045    5452.8807   -1934.9536    73.516672    63.667306    36.678496   -212337.51   -309001.57 
      30            0    171162.13    73.443008    73.443009    36.641744          120   -177836.69   -183068.27   -251705.54    3487.2619    8048.1099   -2966.6249    73.443008    63.603511    36.641744    -204203.5    -309071.5 
      40            0    170647.62    73.369344    73.369345    36.604992          120   -168520.24   -175752.79   -243545.86    4649.9507    10653.495    -4005.542    73.369344    63.539716    36.604992   -195939.63   -309136.18 
      50            0    170134.13     73.29568    73.295681     36.56824          120   -159076.99   -168317.15   -235165.15    5817.8165    13270.533    -5048.449     73.29568    63.475922     36.56824   -187519.76   -309196.76 
      60            0    169621.68    73.222016    73.222017    36.531488          120   -149699.27   -160950.67   -227159.67     6991.595     15894.41   -6093.3328    73.222016    63.412127    36.531488   -179269.87   -309260.76 
      70            0    169110.26    73.148352    73.148353    36.494736          120   -140135.98   -153410.61   -218748.28    8167.4615    18530.332   -7142.9908    73.148352    63.348332    36.494736   -170764.95   -309317.49 
      80            0    168599.87    73.074688    73.074689    36.457984          120   -130498.69   -145805.16   -210209.07    9348.6833    21177.198   -8195.9163    73.074688    63.284537    36.457984   -162170.97   -309371.22 
      90            0     168090.5    73.001024    73.001025    36.421232          120   -120709.64   -138055.35   -201466.14    10534.804    23833.956   -9253.8879    73.001024    63.220742    36.421232   -153410.38   -309421.05 
     100            0    167582.16     72.92736    72.927361     36.38448          120   -111030.27   -130421.61   -192674.01    11726.944    26501.425   -10314.563     72.92736    63.156947     36.38448   -144708.63   -309472.31 
     110            0    167074.85    72.853696    72.853697    36.347728          120   -101038.09      -122486   -183920.38    12921.564    29179.689   -11381.128    72.853696    63.093152    36.347728   -135814.82   -309517.13 
     120            0    166568.56    72.780032    72.780033    36.310976          120   -90986.349   -114497.95   -175052.25     14119.63    31867.494   -12450.684    72.780032    63.029357    36.310976   -126845.52   -309559.38 
     130            0     166063.3    72.706368    72.706369    36.274224          120   -80777.772   -106362.12   -166074.64    15324.236    34565.796    -13524.49    72.706368    62.965562    36.274224   -117738.18   -309598.11 
     140            0    165559.06    72.632704    72.632705    36.237472          120   -70492.904   -98158.001   -156892.05    16533.183    37274.649    -14603.51    72.632704    62.901767    36.237472   -108514.32   -309633.46 
     150            0    165055.84     72.55904    72.559041     36.20072          120   -60104.008   -89855.553    -147700.4    17747.062    39994.734   -15685.597     72.55904    62.837973     36.20072   -99219.987   -309666.47 
     160            0    164553.64    72.485376    72.485377    36.163968          120   -49631.208   -81480.074   -138502.75    18964.807    42723.756   -16770.044    72.485376    62.774178    36.163968   -89871.344   -309696.99 
     170            0    164052.47    72.411712    72.411713    36.127216          120   -38981.572   -72935.325   -129178.07    20186.482    45464.093   -17860.037    72.411712    62.710383    36.127216   -80364.988   -309723.63 
     180            0    163552.31    72.338048    72.338049    36.090464          120   -28290.861   -64352.368   -119662.63    21413.605     48214.33   -18954.373    72.338048    62.646588    36.090464    -70768.62   -309747.57 
     190            0    163053.16    72.264384    72.264385    36.053712          120   -17493.762   -55674.114   -110114.05    22645.101    50974.982    -20052.65    72.264384    62.582793    36.053712   -61093.976   -309768.61 
     200            0    162555.04     72.19072    72.190721     36.01696          120   -6618.2217   -46924.013   -100664.27    23880.701    53743.973   -21154.821     72.19072    62.518998     36.01696    -51402.17   -309787.97 
     210            0    162057.93    72.117056    72.117057    35.980208          120    4441.7085   -37996.279    -90943.55    25120.837    56522.658   -22259.689    72.117056    62.455203    35.980208   -41499.374   -309802.69 
     220            0    161561.83    72.043392    72.043393    35.943456          120    15570.033   -29009.274   -81054.025    26363.262    59309.067    -23366.18    72.043392    62.391408    35.943456   -31497.756   -309814.26 
     230            0    161345.99    72.011295    72.011296    35.927443          120     20499.58   -25012.003   -76667.586    26905.355    60525.369   -23848.454    72.011295    62.363612    35.927443   -27060.003   -309817.65 
     236            0    161345.97    72.011292    72.011292    35.927441          120    20500.139   -25011.571    -76667.11     26905.42    60525.505   -23848.514    72.011292    62.363609    35.927441   -27059.514   -309817.65 
Loop time of 203.504 on 1 procs for 236 steps with 15616 atoms

100.0% CPU use with 1 MPI tasks x no OpenMP threads

Minimization stats:
  Stopping criterion = linesearch alpha is zero
  Energy initial, next-to-last, final = 
        -308824.696785     -309817.658176     -309817.658176
  Force two-norm initial, final = 73670.5 8467.1
  Force max component initial, final = 73670.3 8362.96
  Final line search alpha, max atom move = 8.90902e-17 7.45058e-13
  Iterations, force evaluations = 236 421

MPI task timing breakdown:
Section |  min time  |  avg time  |  max time  |%varavg| %total
---------------------------------------------------------------
Pair    | 183.43     | 183.43     | 183.43     |   0.0 | 90.13
Bond    | 0.016313   | 0.016313   | 0.016313   |   0.0 |  0.01
Kspace  | 5.8511     | 5.8511     | 5.8511     |   0.0 |  2.88
Neigh   | 7.48       | 7.48       | 7.48       |   0.0 |  3.68
Comm    | 0.13724    | 0.13724    | 0.13724    |   0.0 |  0.07
Output  | 0.0030091  | 0.0030091  | 0.0030091  |   0.0 |  0.00
Modify  | 0          | 0          | 0          |   0.0 |  0.00
Other   |            | 6.589      |            |       |  3.24

Nlocal:    15616 ave 15616 max 15616 min
Histogram: 1 0 0 0 0 0 0 0 0 0
Nghost:    48992 ave 48992 max 48992 min
Histogram: 1 0 0 0 0 0 0 0 0 0
Neighs:    1.13226e+07 ave 1.13226e+07 max 1.13226e+07 min
Histogram: 1 0 0 0 0 0 0 0 0 0

Total # of neighbors = 11322624
Ave neighs/atom = 725.066
Ave special neighs/atom = 0.0983607
Neighbor list builds = 20
Dangerous builds = 0

reset_timestep	0
timestep	0.0001
velocity       	all create ${probeTemp} 87287 loop geom
velocity       	all create 1800 87287 loop geom
fix		1 all npt temp ${probeTemp} ${probeTemp} 0.1 iso 1.013 1.013 5.0
fix		1 all npt temp 1800 ${probeTemp} 0.1 iso 1.013 1.013 5.0
fix		1 all npt temp 1800 1800 0.1 iso 1.013 1.013 5.0
run		10000 # Warmup
PPPM initialization ...
  using 12-bit tables for long-range coulomb (../kspace.cpp:321)
  G vector (1/distance) = 0.202783
  grid = 36 50 24
  stencil order = 5
  estimated absolute RMS force accuracy = 0.00096726
  estimated relative force accuracy = 6.71725e-05
  using double precision FFTs
  3d grid and FFT values/proc = 65395 43200
Per MPI rank memory allocation (min/avg/max) = 168.8 | 168.8 | 168.8 Mbytes
Step Temp Volume Cella Cellb Cellc CellGamma Pxx Pyy Pzz Pxy Pxz Pyz Lx Ly Lz Press PotEng 
       0         1800    161345.97    72.011292    72.011292    35.927441          120    44433.483    -993.5861   -52361.247    26784.781    60665.035    -24027.73    72.011292    62.363609    35.927441   -2973.7832   -309817.09 
      10    1870.5387    161345.94    72.011288    72.011288    35.927439          120    -66187.32   -56995.718   -150384.84    -4761.754   -11283.404    4669.5961    72.011288    62.363605    35.927439   -91189.292   -309974.43 
      20    1723.9166    161345.85    72.011274    72.011275    35.927432          120   -137972.88   -94183.468   -211942.72   -25513.016    -57612.15    23101.272    72.011274    62.363593    35.927432   -148033.02   -309676.07 
      30    1688.1784    161345.69     72.01125    72.011251     35.92742          120    7213.2405   -16461.588    -81611.25    14016.032    35555.021   -12452.205     72.01125    62.363573     35.92742   -30286.532   -309612.69 
      40    1553.5556    161345.47    72.011218    72.011219    35.927404          120    20106.291   -7637.8618   -67686.608    17535.396    40940.396   -15333.018    72.011218    62.363545    35.927404    -18406.06   -309340.66 
      50     1397.099    161345.21    72.011178    72.011179    35.927384          120   -123487.08   -88315.437   -191602.75   -20319.349   -51209.114    17864.521    72.011178     62.36351    35.927384   -134468.42   -309021.46 
      60    1355.2142    161344.88    72.011129     72.01113     35.92736          120   -71674.367   -59285.673   -140075.31   -8663.5693   -17637.762    7977.2333    72.011129    62.363468     35.92736   -90345.117   -308943.97 
      70    1153.8048    161344.49    72.011072    72.011073    35.927331          120    47652.848    15171.524   -25640.028    19807.011    53059.169   -15945.613    72.011072    62.363418    35.927331    12394.781   -308525.83 
      80    1197.8128    161344.07    72.011008    72.011009    35.927299          120   -43392.017   -41096.012   -104211.78   -291.80937   -3913.4508    280.01731    72.011008    62.363363    35.927299   -62899.935   -308625.41 
      90     1057.121    161343.59    72.010938    72.010938    35.927264          120   -124722.11   -98091.541   -175346.31   -17904.911   -48560.906    14796.888    72.010938    62.363302    35.927264   -132719.99   -308329.35 
     100    1126.8902    161343.06    72.010859     72.01086    35.927225          120    96.768716    -11298.01   -47664.144    6330.1185    22204.151   -3820.6753    72.010859    62.363234    35.927225   -19621.795   -308477.03 
     110    1116.4536    161342.49    72.010774    72.010775    35.927182          120    24544.478    7468.8085    -16242.38    10784.851    33261.487   -7411.5508    72.010774     62.36316    35.927182    5256.9689   -308450.99 
     120    1144.7858    161341.88    72.010684    72.010684    35.927137          120   -104855.77    -91399.04   -141425.29   -9483.6235    -32669.96    6711.2596    72.010684    62.363082    35.927137   -112560.03   -308505.92 
     130    1241.9723    161341.23    72.010586    72.010587    35.927089          120     -78520.4   -71707.394   -107657.99   -5212.0954   -16499.249    4087.7524    72.010586    62.362997    35.927089   -85961.929   -308706.07 
     140     1207.255    161340.52    72.010482    72.010482    35.927037          120    31190.179    18149.605    16910.771    7648.9169     32998.74   -4168.4915    72.010482    62.362907    35.927037    22083.518   -308625.14 
     150     1353.932    161339.79    72.010372    72.010373    35.926982          120   -35172.413   -37693.542    -49707.63    486.10412    2675.5526   -712.46087    72.010372    62.362812    35.926982   -40857.862   -308931.29 
     160     1254.972    161339.02    72.010257    72.010258    35.926925          120   -119561.05   -111804.35    -138538.1   -5623.5743   -28294.061     2511.735    72.010257    62.362713    35.926925   -123301.17   -308716.98 
     170    1381.3937     161338.2    72.010136    72.010136    35.926864          120   -16733.527   -19016.635   -13394.456    1198.0083    9884.8466   -500.93132    72.010136    62.362608    35.926864   -16381.539   -308981.83 
     180    1299.5797    161337.35     72.01001     72.01001    35.926801          120    22405.728    16939.883    37503.504    2310.7408    20151.779   -1346.6598     72.01001    62.362498    35.926801    25616.372    -308806.3 
     190    1324.5677    161336.48    72.009879     72.00988    35.926736          120   -87640.464   -85862.991   -89109.762   -1507.6938   -12820.511   -1164.6952    72.009879    62.362386    35.926736   -87537.739   -308858.36 
     200    1332.4459    161335.57    72.009744    72.009745    35.926669          120   -78832.758   -77323.858   -70795.086   -445.51175   -8531.4472   -919.98666    72.009744    62.362269    35.926669   -75650.567   -308873.62 
     210    1264.1728    161334.63    72.009605    72.009606    35.926599          120    30835.729    28901.122     68293.82     552.8638    14939.057    4.6822602    72.009605    62.362148    35.926599     42676.89   -308727.39 
     220     1358.236    161333.68    72.009463    72.009464    35.926528          120   -14347.122    -14148.39    14119.878   -267.87941    3870.1067   -1428.2632    72.009463    62.362025    35.926528   -4791.8777   -308925.34 
     230    1251.0041    161332.71    72.009319     72.00932    35.926457          120    -100432.5   -99987.231   -88226.532    563.38067   -9260.9204   -2629.9764    72.009319      62.3619    35.926457    -96215.42    -308694.9 
     240    1375.4842    161331.72    72.009172    72.009172    35.926383          120   -8634.7795   -9753.3399    33418.563    389.04521    3344.5728    -193.3517    72.009172    62.361773    35.926383    5010.1478   -308956.23 
     250    1293.7307    161330.72    72.009023    72.009024    35.926309          120    43005.038    43514.678    99798.497   -726.81138    6846.0687    132.02763    72.009023    62.361644    35.926309    62106.071   -308778.63 
     260     1371.237    161329.73    72.008875    72.008876    35.926235          120   -56655.761   -56072.237   -25878.402     107.1149   -1711.6972   -2443.7124    72.008875    62.361516    35.926235   -46202.133   -308940.06 
     270    1345.7625    161328.72    72.008726    72.008726     35.92616          120   -60423.587   -62340.331   -24777.828    1080.1541    -1143.217   -1463.0527    72.008726    62.361386     35.92616   -49180.582   -308883.75 
     280    1325.1034    161327.72    72.008576    72.008577    35.926086          120    51085.368     49569.94    120131.78   -367.91056    2020.3707    835.43688    72.008576    62.361257    35.926086    73595.696   -308837.55 
     290    1369.9889    161326.72    72.008428    72.008429    35.926012          120    20048.029    19875.174    80559.366   -864.97213    685.30273   -767.39477    72.008428    62.361129    35.926012    40160.856    -308932.4 
     300    1243.8924    161325.74    72.008283    72.008283    35.925939          120   -71446.045    -71928.58   -33346.856    593.18126    1139.9124    -2299.661    72.008283    62.361003    35.925939    -58907.16   -308665.82 
     310     1322.881    161324.77    72.008138    72.008139    35.925867          120    10006.033    7241.3066    73637.221    389.04538   -140.21144    146.42551    72.008138    62.360877    35.925867    30294.854   -308834.41 
     320    1185.4391    161323.82    72.007996    72.007997    35.925797          120    74122.006    70083.332    156886.44   -811.66853   -2529.0661    542.40161    72.007996    62.360755    35.925797    100363.92   -308544.04 
     330    1225.8856     161322.9    72.007859    72.007859    35.925728          120   -22562.099   -22807.243    35154.535   -342.40903    1338.7558   -2107.1293    72.007859    62.360636    35.925728   -3404.9353   -308631.96 
     340     1161.377    161321.99    72.007725    72.007725    35.925661          120   -43548.533   -42973.144    9590.2139    324.45528    2438.0763   -1409.0913    72.007725     62.36052    35.925661   -25643.821   -308494.99 
     350    1145.9317    161321.11    72.007594    72.007594    35.925596          120    70572.369    64107.284    154833.92   -270.22574    -4114.994    475.78786    72.007594    62.360406    35.925596    96504.525   -308461.66 
     360    1182.0973    161320.27    72.007468    72.007469    35.925533          120    49651.803     44580.55    129456.92   -449.54611   -2906.4234    -1232.344    72.007468    62.360297    35.925533     74563.09   -308536.76 
     370    1113.9738    161319.46    72.007348    72.007348    35.925473          120   -55197.724    -51137.32   -1685.4736   -406.09493    3692.3611   -2626.4335    72.007348    62.360193    35.925473   -36006.839   -308388.73 
     380    1227.2641    161318.68    72.007231    72.007231    35.925415          120     15200.45    12937.761    84806.385   -347.14606   -1009.5638   -734.33227    72.007231    62.360092    35.925415    37648.199   -308625.53 
     390    1144.4937    161317.92    72.007119    72.007119    35.925359          120    91221.594    80305.549    177963.96    133.51158   -5822.9062   -784.98271    72.007119    62.359995    35.925359    116497.04   -308444.67 
     400    1261.5089    161317.21    72.007013    72.007014    35.925306          120    -5013.076   -4909.3322    59532.466   -603.23788    825.97602   -2651.5771    72.007013    62.359903    35.925306    16536.686   -308687.83 
     410    1216.7059    161316.53    72.006912    72.006912    35.925255          120   -43613.126   -37828.112    11359.139   -1466.5609    3380.4775   -2197.4017    72.006912    62.359815    35.925255     -23360.7   -308587.99 
     420    1258.7104    161315.88    72.006815    72.006815    35.925207          120     73984.97    64144.046    150962.48    145.62479   -3872.8091   -1604.4365    72.006815    62.359731    35.925207    96363.833   -308671.97 
     430    1303.7472    161315.26    72.006723    72.006724    35.925162          120    67148.815    57329.562    139625.34    465.69751   -2754.4563   -2474.5225    72.006723    62.359652    35.925162    88034.572   -308762.74 
     440    1239.3928    161314.69    72.006638    72.006639    35.925119          120   -47413.912   -39801.773    2832.7907   -2156.6694    5148.6858   -3034.5321    72.006638    62.359579    35.925119   -28127.631   -308622.48 
     450     1353.754    161314.15    72.006557    72.006558    35.925079          120      11032.7    11154.115     70508.42   -1508.4576    1647.3764   -3020.1801    72.006557    62.359508    35.925079    30898.412   -308860.85 
     460    1253.6142    161313.64    72.006481    72.006482    35.925041          120    101966.34    86350.459    171108.91    1427.3834   -3986.8676   -2882.9562    72.006481    62.359443    35.925041    119808.57   -308643.19 
     470    1370.6317    161313.17    72.006412    72.006412    35.925006          120     12027.75    10868.448    63938.135   -818.14048    3147.2138   -3169.1891    72.006412    62.359382    35.925006    28944.778   -308887.82 
     480     1298.513    161312.73    72.006347    72.006348    35.924974          120   -46256.861   -35392.116   -3300.8925   -3514.0264    7625.0482   -3839.9205    72.006347    62.359326    35.924974   -28316.623   -308729.44 
     490     1373.434    161312.33    72.006287    72.006287    35.924944          120    73789.485    63121.963    128526.76    496.20451   -1484.7521   -3440.9604    72.006287    62.359274    35.924944    88479.403   -308883.19 
     500    1379.1036    161311.96    72.006232    72.006233    35.924916          120    81391.747    68465.095    131653.23     1488.817   -1202.1415   -3132.9302    72.006232    62.359227    35.924916    93836.691   -308890.45 
     510     1362.595    161311.63    72.006183    72.006184    35.924892          120   -42091.439   -30935.942   -9927.2653    -3210.508    9876.4818   -3550.0563    72.006183    62.359184    35.924892   -27651.549   -308849.62 
     520    1462.9287    161311.33    72.006138    72.006139    35.924869          120    3507.0431    6453.0353    36912.193   -1773.9524    5247.8079   -3681.4948    72.006138    62.359145    35.924869    15624.091   -309057.75 
     530    1366.5906    161311.06    72.006097    72.006098    35.924849          120    105553.23    88587.423    144299.18     2415.612   -3964.3062   -3424.6782    72.006097     62.35911    35.924849    112813.28   -308848.29 
     540    1509.4296    161310.82    72.006062    72.006063    35.924832          120     22821.95    22364.703    46714.454    -813.8131    5389.1515   -3141.6132    72.006062     62.35908    35.924832    30633.702   -309146.59 
     550    1401.3226    161310.61    72.006031    72.006032    35.924816          120   -49559.245   -35091.063   -38603.165   -3408.2241    12407.632   -3485.2835    72.006031    62.359053    35.924816   -41084.491   -308913.07 
     560    1499.7892    161310.42    72.006003    72.006004    35.924802          120    68179.383    59711.421    85115.925    1032.6047   -576.38924   -3926.8098    72.006003    62.359029    35.924802    71002.243   -309118.38 
     570    1465.2836    161310.27     72.00598     72.00598     35.92479          120    89879.156    77393.397    101534.92    1538.0317    -1994.046   -3599.4525     72.00598    62.359008     35.92479    89602.491    -309040.8 
     580    1465.0225    161310.14    72.005961    72.005961    35.924781          120    -32692.75   -20747.809   -41847.664   -2989.0481    12279.093   -2899.5507    72.005961    62.358992    35.924781   -31762.741    -309037.3 
     590    1516.0536    161310.03    72.005945    72.005945    35.924773          120   -3936.7765    3787.4847   -15519.444   -1926.7653    8549.6138   -3891.2349    72.005945    62.358978    35.924773   -5222.9119   -309142.49 
     600    1446.3234    161309.94    72.005931    72.005932    35.924766          120    106294.91    93155.264     98799.73    2053.9041   -4241.9207   -4587.8866    72.005931    62.358966    35.924766    99416.635   -308990.48 
     610      1552.58    161309.88    72.005922    72.005922    35.924762          120    38438.562    36977.992    12406.626   -597.96526     4345.743   -2872.1788    72.005922    62.358958    35.924762    29274.393   -309213.79 
     620    1446.1792    161309.84    72.005916    72.005916    35.924759          120   -47417.393   -31254.177   -88761.068    -4320.897    15149.782   -2723.2296    72.005916    62.358953    35.924759   -55810.879   -308984.34 
     630    1561.2804     161309.8    72.005911    72.005912    35.924756          120    60747.448    59350.459    26969.848   -36.500038    1986.5831   -5003.6827    72.005911    62.358949    35.924756    49022.585   -309225.14 
     640    1488.2424    161309.79    72.005909     72.00591    35.924755          120    99673.928    89771.842    59039.909    2006.6848   -3399.8776   -4293.8951    72.005909    62.358947    35.924755    82828.559   -309067.51 
     650    1525.8707     161309.8     72.00591    72.005911    35.924756          120   -19649.509   -10165.767   -84078.659   -3521.1993    12142.131   -1843.8352     72.00591    62.358948    35.924756   -37964.645   -309144.49 
     660    1540.9737    161309.82    72.005913    72.005913    35.924757          120   -10089.786    646.82876   -74484.083     -3751.67    12136.661   -3651.1009    72.005913     62.35895    35.924757    -27975.68   -309173.73 
     670    1476.6121    161309.84    72.005916    72.005917    35.924759          120    105282.99    98821.364    48594.101    1900.3602    -3617.352   -5623.6099    72.005916    62.358953    35.924759     84232.82   -309035.05 
     680    1560.4364    161309.88    72.005922    72.005923    35.924762          120    51397.278    51132.048   -23778.113   -293.06591    2899.4056   -3253.3225    72.005922    62.358959    35.924762    26250.405   -309211.16 
     690    1440.5492    161309.93     72.00593    72.005931    35.924766          120   -42783.325    -30942.32    -133368.1   -5231.2896    16410.755   -1833.9083     72.00593    62.358965    35.924766   -69031.248   -308955.56 
     700    1523.4448    161309.99    72.005938    72.005938     35.92477          120    54604.055    55336.135   -23606.269   -1052.2194     3831.162     -5283.34    72.005938    62.358972     35.92477    28777.974   -309130.86 
     710    1432.3993    161310.05    72.005947    72.005948    35.924774          120    104668.57    100694.14    24846.449    1774.4588   -3372.7048    -5774.209    72.005947     62.35898    35.924774    76736.386   -308935.95 
     720    1455.2246    161310.12    72.005958    72.005959     35.92478          120   -8382.7038   -1881.1275   -110377.64   -3001.7909    11237.136   -2007.9656    72.005958     62.35899     35.92478   -40213.823   -308984.02 
     730    1431.5547     161310.2    72.005969     72.00597    35.924785          120   -12360.366   -8170.4705   -114374.88    -3715.315    11926.383   -3087.8685    72.005969    62.358999    35.924785   -44968.573      -308933 
     740    1383.9281    161310.27     72.00598    72.005981    35.924791          120    101796.55    97870.036    13766.999    1033.2765   -2277.9419   -6445.1526     72.00598    62.359009    35.924791    71144.529   -308830.05 
     750    1442.4155    161310.36    72.005993    72.005994    35.924797          120    60732.956     61329.21   -39429.375   -47.757531    2301.9398   -4230.5287    72.005993     62.35902    35.924797    27544.264   -308953.53 
     760    1324.7266    161310.44    72.006006    72.006007    35.924804          120   -38585.527   -34361.602      -156859   -3761.8038    13355.077   -1385.3909    72.006006    62.359031    35.924804   -76602.043   -308702.38 
     770    1431.5956    161310.53    72.006019    72.006019     35.92481          120    46085.039    43748.306   -56678.953   -1113.2493    4102.7291   -4032.7205    72.006019    62.359042     35.92481    11051.464   -308926.98 
     780    1320.6331    161310.61    72.006031    72.006032    35.924816          120    105911.76    101824.31    10902.477    1225.8601   -2751.9672   -5692.7005    72.006031    62.359053    35.924816    72879.516   -308689.52 
     790    1381.0866    161310.71    72.006045    72.006046    35.924823          120    118.59319     2072.336   -118468.25   -1730.1681    7791.1453   -2519.0056    72.006045    62.359065    35.924823   -38759.105   -308815.97 
     800    1350.4009    161310.79    72.006058    72.006059     35.92483          120   -19546.525   -19268.652   -139868.92   -2665.2231    10038.831   -1192.0652    72.006058    62.359076     35.92483   -59561.366   -308748.44 
     810    1321.2406    161310.88     72.00607    72.006071    35.924836          120    93684.663    88250.664   -1775.4683    492.80028   -1015.4705   -4458.4449     72.00607    62.359087    35.924836    60053.286    -308684.4 
     820     1381.818    161310.96    72.006083    72.006084    35.924842          120    66507.316    64364.614   -38067.778    482.25963    1216.0946   -4478.8272    72.006083    62.359098    35.924842    30934.717   -308810.62 
     830    1276.1567    161311.05    72.006096    72.006097    35.924849          120   -37637.197   -36873.319   -166534.13    -2331.975     10812.63   -866.77472    72.006096    62.359109    35.924849   -80348.216   -308583.72 
     840    1385.1013    161311.13    72.006108    72.006108    35.924854          120    34602.867    30476.672   -72392.266   -1434.6016     4710.297   -1650.7382    72.006108    62.359119    35.924854   -2437.5754   -308813.37 
     850    1266.4863     161311.2    72.006119    72.006119     35.92486          120    102681.39    98925.148    13339.694    900.97615   -1319.8368   -4451.3841    72.006119    62.359129     35.92486    71648.744   -308558.39 
     860     1360.466    161311.28    72.006131    72.006131    35.924866          120    7955.1467    6496.2089   -109453.45   -670.42388    6919.0699   -2071.7988    72.006131    62.359139    35.924866   -31667.364   -308755.68 
     870    1286.3676    161311.36    72.006142    72.006142    35.924871          120    -23765.43   -28852.229   -148198.29   -2648.7125    9403.2697    125.57321    72.006142    62.359149    35.924871   -66938.649   -308596.11 
     880    1312.4779    161311.42    72.006152    72.006152    35.924876          120    84159.192    81340.159   -3568.1665   -401.64637    747.52317   -2619.1295    72.006152    62.359157    35.924876    53977.061   -308648.24 
     890    1341.9314    161311.49    72.006162    72.006163    35.924882          120    71405.156    70863.179   -20562.234    205.23469    2601.1374   -2494.5102    72.006162    62.359166    35.924882      40568.7   -308708.04 
     900    1266.3807    161311.57    72.006173    72.006174    35.924887          120   -29730.247    -36327.73   -157539.99   -2252.7263    9969.6709   -31.084292    72.006173    62.359176    35.924887   -74532.655   -308545.12 
     910    1386.3304    161311.63    72.006183    72.006184    35.924892          120    26827.431    21905.044   -77287.357   -1445.1575    4949.4257   -1015.4471    72.006183    62.359184    35.924892   -9518.2938   -308795.69 
     920    1275.8816     161311.7    72.006193    72.006193    35.924897          120    101138.26    103501.77    27667.655    163.96968    925.71319   -2208.8885    72.006193    62.359193    35.924897    77435.893    -308557.3 
     930    1400.0124    161311.77    72.006204    72.006204    35.924902          120    20610.078    17531.668   -86525.061   -1487.4477    7007.1911   -537.17342    72.006204    62.359202    35.924902   -16127.772   -308817.38 
     940    1323.8736    161311.85    72.006215    72.006215    35.924908          120   -22698.367   -31433.197   -146204.95    -1876.578    8028.1418    236.28723    72.006215    62.359212    35.924908   -66778.837   -308651.08 
     950    1393.6751    161311.92    72.006225    72.006226    35.924913          120    79523.672    81072.639    4000.6203    487.46815    2067.6169   -1719.0309    72.006225    62.359221    35.924913    54865.644   -308795.29 
     960    1395.5637       161312    72.006237    72.006238    35.924919          120    81116.998    84194.178    5172.1246    75.032995    3544.5101   -1583.7798    72.006237    62.359231    35.924919    56827.767   -308795.16 
     970    1375.0437    161312.09     72.00625    72.006251    35.924926          120   -17730.846   -26117.815   -139862.56    -2261.446    8197.5744      1079.01     72.00625    62.359243    35.924926   -61237.073   -308747.31 
     980    1459.6956    161312.18    72.006264    72.006264    35.924932          120    24846.241    20679.448    -71528.18   -131.94204    4917.1094   -168.56871    72.006264    62.359254    35.924932   -8667.4969   -308923.09 
     990    1371.0932    161312.27    72.006278    72.006279     35.92494          120    106498.23    111994.51    49839.952    2501.2355    2200.9731   -2674.2985    72.006278    62.359267     35.92494    89444.229   -308730.59 
    1000    1494.0155    161312.39    72.006296    72.006296    35.924948          120     37983.35    35008.095   -55145.538   -691.34666    6242.4036   -198.90825    72.006296    62.359282    35.924948    5948.6355   -308987.66 
    1010    1396.2524    161312.52    72.006314    72.006315    35.924957          120   -15667.652   -24361.782   -129680.51    -2614.913    7306.2618    1438.7809    72.006314    62.359298    35.924957    -56569.98    -308776.8 
    1020    1481.3705    161312.65    72.006334    72.006335    35.924967          120    81585.875    83959.322    19611.312    2621.8936    3740.5969   -2286.0714    72.006334    62.359315    35.924967    61718.836   -308953.21 
    1030    1460.2072     161312.8    72.006357    72.006358    35.924979          120    97630.028    99626.409    39746.575    3079.7454    4577.9801    -2369.095    72.006357    62.359335    35.924979    79001.004   -308904.12 
    1040    1446.4721    161312.98    72.006384    72.006384    35.924992          120    -1680.295   -9686.5322   -105504.73   -3199.3729    7505.6738    663.56545    72.006384    62.359358    35.924992   -38957.184   -308871.92 
    1050    1509.5007    161313.17    72.006412    72.006413    35.925006          120    26349.383    23870.932   -56017.943   -809.07295    5727.8906   -930.19089    72.006412    62.359383    35.925006   -1932.5426   -309001.95 
    1060    1431.0497    161313.39    72.006444    72.006444    35.925022          120    117690.56    121381.98    75993.913    5236.2517    4442.4496   -2788.0139    72.006444     62.35941    35.925022    105022.15    -308831.7 
    1070    1528.1029    161313.63     72.00648    72.006481     35.92504          120    58225.762    54407.721   -11462.764    230.69632    6898.1468   -1777.5978     72.00648    62.359442     35.92504    33723.573   -309035.55 
    1080    1428.6208     161313.9     72.00652    72.006521     35.92506          120   -9871.1056   -15847.121   -101613.33   -4271.2439    6650.1741   -1238.8567     72.00652    62.359476     35.92506   -42443.851   -308821.07 
    1090    1512.7814    161314.19    72.006563    72.006564    35.925082          120    85503.698    87960.896    36707.022    3422.1629    4546.0073   -1656.8587    72.006563    62.359514    35.925082    70057.206   -308996.61 
    1100    1457.0394    161314.51    72.006611    72.006612    35.925106          120     115141.1     116583.8    76312.247    4568.5655    6234.5409   -2295.6505    72.006611    62.359555    35.925106    102679.05   -308875.89 
    1110    1463.7739    161314.87    72.006665    72.006666    35.925133          120    10221.215    5463.3348   -64143.324   -3591.0869    7611.0587   -3597.1716    72.006665    62.359602    35.925133   -16152.925   -308887.23 
    1120    1499.6326    161315.26    72.006723    72.006724    35.925161          120    26267.353     25121.54   -36598.912   -1344.5655    4979.8906   -2204.7025    72.006723    62.359652    35.925161    4929.9934   -308961.21 
    1130    1416.4815    161315.68    72.006786    72.006786    35.925193          120    126985.33    130125.99     97656.75      5486.69    5082.3071   -436.93814    72.006786    62.359706    35.925193    118256.02   -308781.83 
    1140    1525.9985    161316.15    72.006855    72.006856    35.925227          120    72836.752    73008.272    28665.775    969.33215    7473.8273   -3507.6131    72.006855    62.359766    35.925227    58170.266   -309011.26 
    1150    1402.1194    161316.65     72.00693     72.00693    35.925265          120   -8654.4354   -11505.163   -71126.406   -4156.1761    6731.9101    -5430.491     72.00693    62.359831    35.925265   -30428.668   -308746.07 
    1160    1505.3804    161317.19     72.00701     72.00701    35.925304          120    85882.743    86174.424    50178.195    2013.8567    4546.4055   -397.14505     72.00701      62.3599    35.925304    74078.454   -308962.71 
    1170    1432.8439    161317.77    72.007096    72.007096    35.925347          120    126534.67    129333.35    101916.08    4117.8477    5315.2868    -266.6234    72.007096    62.359975    35.925347    119261.37   -308805.31 
    1180    1458.0095    161318.39    72.007189    72.007189    35.925394          120    17540.677    17132.999   -26640.061   -2094.9315    7397.2879    -6184.387    72.007189    62.360055    35.925394    2677.8717   -308856.84 
    1190    1467.2943    161319.06    72.007288    72.007288    35.925443          120    20449.484    18363.701   -19610.494   -1992.9478    6111.5156   -4151.5386    72.007288    62.360141    35.925443    6400.8971   -308874.08 
    1200    1414.1118    161319.76    72.007392    72.007393    35.925495          120    129454.84     131437.5    109853.25    3362.6672    3212.2912    1263.2523    72.007392    62.360231    35.925495    123581.86   -308757.35 
    1210    1499.7454    161320.51    72.007504    72.007505    35.925551          120    83668.346    85975.319    59761.642    1286.3392    4833.0075   -2455.9664    72.007504    62.360329    35.925551    76468.436   -308937.36 
    1220    1377.8376    161321.31    72.007623    72.007624     35.92561          120   -12473.017   -13724.948   -45194.712   -2895.9139    8021.5248   -7008.9707    72.007623    62.360432     35.92561   -23797.559   -308675.59 
    1230    1503.1499    161322.15    72.007748    72.007748    35.925673          120    76870.073    77445.138    57507.541    601.30591     4102.934   -1159.8068    72.007748     62.36054    35.925673    70607.584   -308938.92 
    1240    1385.6098    161323.03    72.007879     72.00788    35.925738          120    131413.33    134455.94    119495.95    2819.5636    1516.0274    1125.0331    72.007879    62.360653    35.925738    128455.07   -308687.34 
    1250    1460.1423    161323.97    72.008019    72.008019    35.925808          120    21549.611    21492.368    1950.5507    -981.7451    6331.3385    -4649.077    72.008019    62.360774    35.925808     14997.51   -308843.31 
    1260    1426.9808    161324.95    72.008164    72.008165     35.92588          120    7344.5623    6463.4648   -10095.503   -1748.9498    7216.0819   -4581.2889    72.008164      62.3609     35.92588    1237.5081   -308770.33 
    1270    1403.6914    161325.97    72.008316    72.008316    35.925956          120       123145    125602.66    116243.54    2236.0229    1268.2923    1285.6328    72.008316    62.361031    35.925956    121663.73   -308718.46 
    1280    1473.0541    161327.04    72.008475    72.008476    35.926035          120    88990.631      89833.1    80331.902    1399.6139    2234.0036   -132.32792    72.008475    62.361169    35.926035    86385.211   -308862.44 
    1290    1371.8032    161328.16    72.008642    72.008642    35.926119          120   -17083.935   -19144.114    -30482.81   -1896.4474    7868.2714   -4750.7112    72.008642    62.361314    35.926119   -22236.953   -308644.45 
    1300    1487.9359    161329.31    72.008814    72.008814    35.926204          120    62473.848    63569.895    56151.002    486.93157    4524.4153     -1152.86    72.008814    62.361463    35.926204    60731.582   -308888.47 
    1310    1382.8964    161330.52    72.008993    72.008993    35.926294          120    130158.41    131846.32    127518.65    2536.2996    582.73159    2043.9376    72.008993    62.361618    35.926294    129841.13   -308661.55 
    1320    1476.4667    161331.77    72.009179     72.00918    35.926387          120    25945.321    24248.602    17128.921   -457.54874    4802.3397   -1664.7145    72.009179    62.361779    35.926387    22440.948    -308857.7 
    1330    1417.3094    161333.07    72.009372    72.009373    35.926483          120   -4954.0064   -4891.1963   -13489.344    -843.0143    7636.0445   -3560.1623    72.009372    62.361946    35.926483   -7778.1823   -308729.06 
    1340    1447.9941     161334.4    72.009571    72.009571    35.926582          120    112626.17    114973.84    110958.58    2549.5702    2763.5252    831.00649    72.009571    62.362118    35.926582    112852.86   -308789.77 
    1350    1479.0902    161335.78    72.009776    72.009777    35.926685          120     93745.68    93245.182    87941.018    1220.8607    2038.8313    1238.3294    72.009776    62.362296    35.926685     91643.96   -308852.47 
    1360    1413.1368    161337.21    72.009989    72.009989    35.926791          120   -18361.042   -20278.684   -32494.318   -1364.2562    6845.5128   -3342.9221    72.009989     62.36248    35.926791   -23711.348   -308708.97 
    1370    1523.2184    161338.68    72.010207    72.010207    35.926899          120    47204.764    48880.034     39206.18    1884.3004    6364.0581   -2598.7249    72.010207    62.362669    35.926899    45096.993   -308938.56 
    1380    1417.7051    161340.18    72.010431    72.010431    35.927011          120    127815.09    128903.17    122526.28    2856.0285    2601.5702    1279.4739    72.010431    62.362863    35.927011    126414.85   -308711.26 
    1390     1520.314    161341.73    72.010661    72.010662    35.927126          120    33298.191    29454.793    13612.814   -980.87348    3998.9789   -835.28207    72.010661    62.363063    35.927126    25455.266   -308926.02 
    1400    1454.9634    161343.32    72.010898    72.010898    35.927244          120   -12463.011   -14859.465   -36064.912    43.357899     7027.828   -4607.9493    72.010898    62.363267    35.927244   -21129.129   -308783.51 
    1410    1488.8096    161344.94    72.011139    72.011139    35.927364          120    102457.69    104042.97    91183.616    3721.0659    4996.0354   -1723.7398    72.011139    62.363476    35.927364    99228.093   -308852.37 
    1420    1507.2169    161346.61    72.011386    72.011387    35.927488          120     99370.63    96980.956    79234.165    1362.0187    3577.1555   -24.376169    72.011386    62.363691    35.927488    91861.917   -308887.87 
    1430    1456.1629    161348.31     72.01164     72.01164    35.927614          120   -13776.396   -19501.904   -53557.999   -1826.3765    4958.8574   -3244.9063     72.01164     62.36391    35.927614   -28945.433   -308776.44 
    1440    1544.5379    161350.04    72.011898    72.011898    35.927743          120    36792.791    36473.574    8133.9827    1914.1924    5607.4884   -4353.6656    72.011898    62.364133    35.927743    27133.449   -308961.15 
    1450    1449.5293    161351.81     72.01216    72.012161    35.927874          120    124892.02    124574.42     104128.5    3822.0108     4980.344   -2130.3244     72.01216    62.364361    35.927874    117864.98    -308755.4 
    1460    1559.0411    161353.61    72.012429    72.012429    35.928008          120    41626.533    37080.528   -2250.3404   -725.28134    4216.2457    -1843.064    72.012429    62.364593    35.928008    25485.574   -308984.73 
    1470    1470.8608    161355.45    72.012702    72.012702    35.928144          120   -16912.478   -19239.933   -68695.294   -1707.5186    3807.6096   -3276.5462    72.012702     62.36483    35.928144   -34949.235   -308794.75 
    1480     1535.495    161357.31    72.012978    72.012979    35.928282          120    92179.993    92466.497    60257.381    3440.7883    5071.1133   -4095.4461    72.012978    62.365069    35.928282    81634.624   -308927.89 
    1490    1531.7812     161359.2     72.01326    72.013261    35.928423          120    101997.05    100829.02    63683.785    2299.7575    5472.1063   -3106.0114     72.01326    62.365313    35.928423    88836.617    -308916.7 
    1500    1490.8234    161361.13    72.013547    72.013547    35.928566          120   -11275.382   -14606.866   -76758.929   -2813.9527    3161.2777   -1399.5517    72.013547    62.365561    35.928566   -34213.726   -308826.76 
    1510    1581.2292    161363.07    72.013836    72.013837     35.92871          120    25427.616    24470.756   -30339.726    515.98294    3055.2754   -3086.2197    72.013836    62.365812     35.92871    6519.5485   -309015.18 
    1520    1475.1499    161365.04    72.014129     72.01413    35.928856          120    117915.42    120349.38    80430.172    3583.3196    5667.4365   -4780.3552    72.014129    62.366066    35.928856    106231.66   -308786.51 
    1530    1593.3075    161367.04    72.014427    72.014427    35.929005          120    46104.786    44435.978   -15205.219   -792.19954    4660.2107   -2486.0461    72.014427    62.366324    35.929005    25111.849   -309034.69 
    1540    1484.9504    161369.07    72.014728    72.014728    35.929155          120   -21597.138   -26480.744   -101543.51   -2158.6677    1840.7732   -570.05261    72.014728    62.366584    35.929155   -49873.796   -308801.07 
    1550    1569.6944    161371.11    72.015031    72.015032    35.929306          120    79837.534    82022.877    27716.948    2152.5256    3432.6366   -3798.5603    72.015031    62.366847    35.929306    63192.453   -308978.44 
    1560     1523.135    161373.17    72.015338    72.015339     35.92946          120    100786.76    103601.28    50571.898    1482.0332     4982.179   -4573.4684    72.015338    62.367113     35.92946    84986.644   -308876.42 
    1570     1520.278    161375.26    72.015649    72.015649    35.929615          120   -7893.0193   -13975.169   -93783.167    -2380.008     2962.373   -1117.1647    72.015649    62.367382    35.929615   -38550.452    -308867.5 
    1580    1567.3968    161377.36    72.015961    72.015962     35.92977          120    14843.455    11927.326   -63675.726   -513.61813    1598.1563    -1328.647    72.015961    62.367653     35.92977   -12301.648   -308965.09 
    1590    1475.2417    161379.48    72.016276    72.016277    35.929928          120    110590.33     115104.7    60506.851     2264.992    3355.4675    -4473.167    72.016276    62.367925    35.929928     95400.63   -308765.94 
    1600    1594.1911    161381.62    72.016594    72.016595    35.930086          120    51100.179    49463.115   -22208.081   -228.46645    4058.7799   -4058.7584    72.016594    62.368201    35.930086    26118.404   -309015.68 
    1610     1458.952    161383.77    72.016915    72.016916    35.930246          120   -24857.939   -31328.357    -123551.3   -2372.6883    2129.4958   -1280.5484    72.016915    62.368479    35.930246   -59912.533   -308726.14 
    1620    1570.5775    161385.94    72.017237    72.017238    35.930407          120     69618.06    70832.904    1579.2499    1081.9174    2351.8019   -2691.8444    72.017237    62.368758    35.930407    47343.405   -308960.16 
    1630     1490.695    161388.12    72.017562    72.017562    35.930569          120    102829.87    105553.98     42311.17    2111.4729    4072.3375   -5107.5849    72.017562    62.369039    35.930569    83565.008   -308787.31 
    1640    1514.3741    161390.32     72.01789     72.01789    35.930732          120   -2974.3928   -7292.8727    -99612.96   -1826.9298    2904.8028    -3684.511     72.01789    62.369323    35.930732   -36626.742   -308835.91 
    1650    1525.2486    161392.53    72.018219    72.018219    35.930897          120    6420.0456    2419.5469   -87914.475   -1314.9477      2236.06   -1415.0984    72.018219    62.369608    35.930897   -26358.294   -308856.04 
    1660    1468.3654    161394.76    72.018549     72.01855    35.931062          120     108993.6    111354.67    45799.291    2703.0266    4045.8825   -3875.9406    72.018549    62.369894    35.931062    88715.854   -308732.47 
    1670    1549.8587       161397    72.018883    72.018883    35.931228          120     59415.79    59163.107   -19827.261    290.95357    3336.8857   -5682.8987    72.018883    62.370183    35.931228    32917.212    -308903.4 
    1680    1436.8393    161399.26    72.019219    72.019219    35.931396          120   -25371.185   -31625.362   -133392.13   -2916.4185    1536.3689   -2365.9236    72.019219    62.370473    35.931396   -63462.891   -308660.29 
    1690    1548.0546    161401.52    72.019555    72.019556    35.931563          120    64708.979    62936.978   -18045.386    1056.1037    3333.0621   -1921.2478    72.019555    62.370765    35.931563    36533.524   -308893.92 
    1700    1447.0778     161403.8    72.019894    72.019895    35.931733          120    109491.36    110582.14    42525.744    2028.1497    4092.0637     -5198.04    72.019894    62.371059    35.931733    87533.081   -308676.78 
    1710    1507.7393     161406.1    72.020236    72.020237    35.931903          120    5580.1739    321.18266   -94595.465    -2353.937    1513.8442   -4738.5033    72.020236    62.371355    35.931903   -29564.703   -308802.64 
    1720    1487.6558    161408.41     72.02058     72.02058    35.932075          120    3108.6389   -2263.4336   -102758.29   -1561.7953    1689.5786     -1391.26     72.02058    62.371652    35.932075   -33971.027    -308757.2 
    1730    1455.8613    161410.73    72.020925    72.020925    35.932247          120    110115.84    110097.04      38107.2     1687.132     4337.411   -3277.5386    72.020925    62.371951    35.932247    86106.693   -308686.77 
    1740    1530.9911    161413.07    72.021273    72.021273     35.93242          120    71870.326    67947.937   -10188.256   -697.36799    3264.6676   -5788.0248    72.021273    62.372252     35.93242    43210.002    -308842.9 
    1750    1428.2878    161415.42    72.021623    72.021624    35.932595          120   -20599.771   -27832.219   -133291.46   -2645.7422    559.95186   -3397.9793    72.021623    62.372556    35.932595   -60574.482   -308622.21 
    1760     1536.008    161417.79    72.021975    72.021975    35.932771          120    60637.545    58610.077   -30570.952   -250.20313     3106.639    -1791.585    72.021975     62.37286    35.932771     29558.89   -308847.92 
    1770    1449.3534    161420.17    72.022329    72.022329    35.932947          120    118779.71    115883.15    46072.109   -198.33952     5485.512   -4384.8524    72.022329    62.373167    35.932947    93578.323   -308660.09 
    1780    1513.3728    161422.57    72.022687    72.022687    35.933126          120    18054.851    10721.817   -80744.705   -2019.7924    1559.7188   -5648.9687    72.022687    62.373477    35.933126   -17322.679   -308793.65 
    1790    1485.1783    161424.99    72.023046    72.023047    35.933305          120   -804.13881   -4277.0029   -107082.49   -1488.1549    590.98525   -2520.5973    72.023046    62.373788    35.933305   -37387.876   -308730.59 
    1800    1481.5411    161427.42    72.023407    72.023408    35.933485          120    111515.68    109139.28    32963.372    -402.5975    5952.3512    -2307.484    72.023407    62.374101    35.933485    84539.443   -308719.18 
    1810    1533.8559    161429.87    72.023772    72.023773    35.933667          120    86174.488    80118.003    5230.4229   -991.21221     4754.082   -5486.5503    72.023772    62.374417    35.933667    57174.305   -308827.68 
    1820    1444.5933    161432.35     72.02414    72.024141    35.933851          120   -17563.787   -23009.352   -122467.11   -1782.3291   -407.17126   -5108.6892     72.02414    62.374736    35.933851   -54346.748   -308634.97 
    1830    1561.5116    161434.83     72.02451    72.024511    35.934035          120    55115.749    52953.577   -35335.795   -437.25781    3372.0925   -1554.8766     72.02451    62.375056    35.934035    24244.511   -308879.82 
    1840    1448.1106    161437.34    72.024883    72.024883    35.934221          120    126021.51    122769.27    55554.453     546.6868    6923.8347   -3355.8523    72.024883    62.375379    35.934221    101448.41   -308636.24 
    1850    1545.2471    161439.87    72.025259     72.02526    35.934409          120    29038.432    22674.281   -60227.636   -1031.8833    1866.8227   -6328.2761    72.025259    62.375705    35.934409   -2838.3077   -308839.08 
    1860     1492.053    161442.43    72.025639    72.025639    35.934599          120   -4625.1389   -8546.9673   -103070.48   -1116.1273    343.48232   -3315.8743    72.025639    62.376034    35.934599   -38747.527   -308722.59 
    1870     1504.455    161444.99    72.026021    72.026021    35.934789          120    108522.03    107482.52    37965.034    1766.4144    6004.1764   -1566.6379    72.026021    62.376364    35.934789    84656.527   -308745.76 
    1880    1551.1887    161447.59    72.026407    72.026407    35.934982          120    95322.782    91703.367    26811.123    1226.9576    4954.5741   -4445.7142    72.026407    62.376698    35.934982    71279.091   -308841.13 
    1890    1470.5783    161450.21    72.026796    72.026797    35.935176          120   -12936.118   -18656.152   -106032.51   -1508.3033     477.0292   -5322.9387    72.026796    62.377036    35.935176   -45874.928   -308666.88 
    1900    1581.7739    161452.85    72.027189    72.027189    35.935372          120    47906.793    46313.143    -31660.31     1101.644    3711.8946   -1709.5488    72.027189    62.377376    35.935372    20853.209   -308899.88 
    1910     1469.012    161455.51    72.027585    72.027585     35.93557          120    127046.81    126087.12    71519.995     3033.204    5950.2418   -1817.8651    72.027585    62.377719     35.93557    108217.98   -308655.89 
    1920    1583.1256    161458.21    72.027985    72.027986    35.935769          120     38585.06    34595.238    -34207.89   -179.93039    2755.8491   -4483.9671    72.027985    62.378066    35.935769    12990.803   -308895.36 
    1930    1490.0283    161460.92     72.02839     72.02839    35.935971          120   -8354.5783   -11697.435   -93458.131   -644.72144    2340.6539   -3440.8064     72.02839    62.378416    35.935971   -37836.715   -308694.81 
    1940    1552.6384    161463.66    72.028797    72.028797    35.936174          120    103064.67    101780.75    46663.831    2607.0541    4725.0488   -1203.6342    72.028797    62.378769    35.936174    83836.416   -308823.59 
    1950    1547.5769    161466.43    72.029209    72.029209     35.93638          120    102974.25    101069.63    51435.881    1560.1516    4215.9121   -1840.8685    72.029209    62.379125     35.93638    85159.921   -308810.01 
    1960     1501.031    161469.24    72.029626    72.029626    35.936588          120   -8788.5223   -12156.544    -84138.23   -1554.1877    2939.3528    -4219.129    72.029626    62.379486    35.936588   -35027.766   -308708.41 
    1970    1596.1855    161472.06    72.030046    72.030047    35.936797          120    39513.053    35632.071   -25207.151     330.7476    3281.5776   -3351.3357    72.030046     62.37985    35.936797    16645.991   -308906.72 
    1980    1481.6755    161474.92     72.03047    72.030471    35.937009          120    129034.79    126588.62    87760.645    2049.6901     3851.956      16.3132     72.03047    62.380218    35.937009    114461.35   -308660.39 
    1990    1604.9514    161477.81      72.0309      72.0309    35.937224          120    47188.312    46203.226   -6784.3564   -668.54115    4176.7129   -1800.9738      72.0309     62.38059    35.937224     28869.06    -308919.3 
    2000    1497.5281    161480.73    72.031334    72.031335     35.93744          120   -13272.217   -17228.182   -79786.077   -2124.5172    3831.7679   -5875.2417    72.031334    62.380966     35.93744   -36762.159   -308687.57 
    2010    1577.9589    161483.67    72.031772    72.031772    35.937659          120    98385.844    92899.265    54868.057    702.04032     3559.001   -1505.8869    72.031772    62.381345    35.937659    82051.055   -308855.78 
    2020    1541.6376    161486.65    72.032215    72.032216     35.93788          120    109810.59    108276.29    73575.903     1015.083    4268.3255    1147.1509    72.032215    62.381729     35.93788    97220.927   -308774.88 
    2030    1533.1367    161489.67    72.032664    72.032664    35.938103          120   -6083.1266   -5854.9279   -61458.529    -1982.949    4644.9367   -4923.9889    72.032664    62.382117    35.938103   -24465.528    -308753.8 
    2040    1579.6379    161492.71    72.033116    72.033117    35.938329          120    30734.132    25368.464   -19540.345    -1549.747    4252.9809   -5492.9194    72.033116    62.382509    35.938329    12187.417   -308850.09 
    2050    1495.6316    161495.79    72.033573    72.033574    35.938557          120    130335.86    123885.93    99925.214    1364.2692    4588.0653    1047.4701    72.033573    62.382905    35.938557       118049   -308668.01 
    2060    1598.6883     161498.9    72.034037    72.034037    35.938789          120    56588.819    55432.129    17150.923    352.11538    4636.3955   -1509.8956    72.034037    62.383306    35.938789    43057.291   -308884.04 
    2070    1481.0218    161502.05    72.034505    72.034506    35.939022          120   -17535.422   -17936.518    -69005.97   -2088.1774    4609.8633    -7244.001    72.034505    62.383712    35.939022    -34825.97   -308632.03 
    2080    1575.2194    161505.23    72.034978    72.034978    35.939258          120    91299.887    83562.878    56764.928    -20.80808    5272.2483   -2060.1818    72.034978    62.384121    35.939258    77209.231   -308828.65 
    2090    1517.6379    161508.45    72.035456    72.035456    35.939496          120    119573.84    110507.41        91001      1885.92    4843.7618    193.10667    72.035456    62.384535    35.939496    107027.42   -308703.44 
    2100    1524.2971     161511.7     72.03594     72.03594    35.939738          120    1212.8933    513.32566   -44325.742   -772.22231    4484.4698   -4717.7693     72.03594    62.384955    35.939738   -14199.841   -308715.15 
    2110    1561.3075    161514.99    72.036429    72.036429    35.939982          120    20350.224    18666.187   -22309.685   -1804.6175    5582.5138   -4371.2174    72.036429    62.385378    35.939982    5568.9091    -308790.4 
    2120    1494.0708    161518.31    72.036922    72.036923    35.940228          120    130975.86    119179.75    104995.25    1521.3435    5334.5057   -997.89673    72.036922    62.385805    35.940228    118383.62   -308644.14 
    2130    1588.6629    161521.67    72.037422    72.037422    35.940477          120    69811.202    61554.099    34298.834    1085.9205    4358.3449    -1600.382    72.037422    62.386238    35.940477    55221.378   -308842.18 
    2140    1487.6502    161525.07    72.037927    72.037928    35.940729          120   -19780.378   -18101.471   -68210.087    -2073.239    5515.9429   -2838.8502    72.037927    62.386675    35.940729   -35363.979      -308624 
    2150     1585.022     161528.5    72.038436    72.038437    35.940984          120    82413.499    76515.337    50025.303   -500.99606    5342.2174   -2473.4894    72.038436    62.387117    35.940984     69651.38   -308827.59 
    2160     1514.165    161531.96    72.038952    72.038952    35.941241          120    126123.51    114115.62    99638.478    1944.6136    3813.6711   -1636.2786    72.038952    62.387563    35.941241    113292.53   -308673.99 
    2170    1546.5246    161535.47    72.039473    72.039474    35.941501          120    9066.2575    6384.3123    -35836.41    -426.9095    5588.8198    7.7501658    72.039473    62.388014    35.941501     -6795.28    -308739.5 
    2180    1556.4639    161539.01    72.039999        72.04    35.941763          120    12594.245      12824.3   -30962.317    -2206.874    6032.1382   -946.68091    72.039999     62.38847    35.941763   -1847.9241   -308758.46 
    2190    1498.0776    161542.58     72.04053    72.040531    35.942028          120    126889.02    118709.22       100417    1046.4957    2537.3187   -3297.9419     72.04053     62.38893    35.942028    115338.41   -308631.15 
    2200    1596.5323    161546.19    72.041067    72.041068    35.942296          120    78337.404    72097.379    43807.587    1206.9114    4477.9787   -752.61145    72.041067    62.389395    35.942296    64747.457   -308836.75 
    2210    1474.8101    161549.84     72.04161     72.04161    35.942567          120   -18968.606     -18665.1   -68150.988   -2017.6823    8395.3993    2249.5201     72.04161    62.389865    35.942567   -35261.565   -308575.96 
    2220    1594.7809    161553.52    72.042157    72.042157     35.94284          120    73173.156    70262.199    37155.997   -526.08025     2870.226   -1983.2595    72.042157    62.390339     35.94284    60197.117   -308827.19 
    2230    1505.8866    161557.24    72.042709     72.04271    35.943115          120    127089.46    123045.12    98644.116    1351.1254    1306.3658   -3532.1184    72.042709    62.390817    35.943115    116259.57    -308634.5 
    2240    1561.8515       161561    72.043268    72.043269    35.943394          120    16970.877    15410.837   -28853.384   -318.40511    8546.5118    1655.2569    72.043268    62.391301    35.943394    1176.1098   -308750.86 
    2250    1551.4245    161564.79    72.043832    72.043832    35.943675          120     5436.711    3173.9832   -42111.538   -604.92904    6846.0745    1738.2058    72.043832    62.391789    35.943675   -11166.948   -308725.09 
    2260    1526.9793    161568.61    72.044399      72.0444    35.943959          120    119401.74    118913.91    88428.244    378.90809   -296.06955   -3173.7367    72.044399    62.392281    35.943959    108914.63   -308669.33 
    2270    1598.7825    161572.47    72.044973    72.044974    35.944245          120    85072.734     85691.38    46537.555    47.546789    4111.6751   -1780.4861    72.044973    62.392778    35.944245     72433.89   -308818.97 
    2280    1493.7715    161576.37    72.045553    72.045553    35.944534          120   -18027.623   -21093.745   -72112.198     719.7749    9561.8958    2761.8045    72.045553     62.39328    35.944534   -37077.856   -308592.69 
    2290    1620.6464     161580.3    72.046136    72.046137    35.944825          120    61399.754    60745.703    20837.484    569.56125    2192.0866    5.4400984    72.046136    62.393785    35.944825     47660.98   -308858.94 
    2300    1497.5017    161584.25    72.046724    72.046725    35.945119          120    126580.01    130100.39     92321.37   -1026.2517    129.75191   -2908.2463    72.046724    62.394294    35.945119    116333.92   -308594.57 
    2310     1597.873    161588.25    72.047319    72.047319    35.945415          120    24027.654    23797.537       -28218    282.18908    6479.9695   -5.4245155    72.047319    62.394809    35.945415    6535.7305   -308804.56 
    2320    1538.8293    161592.28    72.047917    72.047918    35.945714          120   -3796.4421   -6128.2856   -56289.213    2019.8378    5485.6007    1515.3663    72.047917    62.395327    35.945714   -22071.313    -308676.3 
    2330    1548.6947    161596.33     72.04852     72.04852    35.946014          120    112340.96    114460.66    73731.353   -664.16488    204.77042   -1222.1331     72.04852    62.395849    35.946014    100177.66   -308694.32 
    2340    1596.6247    161600.43    72.049128    72.049128    35.946318          120    91074.846    93823.516    44543.461   -1243.0491    2155.7673   -2487.1183    72.049128    62.396376    35.946318    76480.607   -308792.34 
    2350    1512.8166    161604.55    72.049741    72.049742    35.946624          120   -19474.578   -19727.886   -77785.182    1967.5187    5554.2547   -546.20478    72.049741    62.396907    35.946624   -38995.882   -308611.25 
    2360    1624.3053     161608.7    72.050358    72.050358    35.946931          120    50013.275    49275.125    760.81306    1286.0846    2759.0322    482.34752    72.050358    62.397441    35.946931    33349.738   -308844.57 
    2370    1519.9857    161612.88    72.050979    72.050979    35.947241          120    127993.63    129071.75    82287.988    -1229.721    923.97382   -2153.7175    72.050979    62.397978    35.947241    113117.79   -308618.66 
    2380    1623.8312    161617.09    72.051605    72.051605    35.947553          120    29145.368    31947.723   -28037.356    429.62581    3269.9456   -3316.7484    72.051605    62.398521    35.947553    11018.579   -308836.49 
    2390    1547.6462    161621.33    72.052235    72.052235    35.947868          120   -13511.127   -13378.204    -72542.55    2565.8598    4409.9943   -262.80811    72.052235    62.399066    35.947868    -33143.96    -308671.4 
    2400    1598.1394    161625.59    72.052868    72.052869    35.948184          120    106498.43    103449.34    55336.514    84.214127    1914.2923   -641.88814    72.052868    62.399615    35.948184    88428.093   -308774.57 
    2410    1599.3452    161629.89    72.053506    72.053507    35.948502          120    97184.818    98743.607    42818.436   -925.43356    1794.9814   -3308.6666    72.053506    62.400167    35.948502    79582.287   -308774.33 
    2420    1549.4469    161634.21    72.054149    72.054149    35.948823          120   -20774.017   -16329.781   -84375.903    2251.0065    3532.5548   -2295.7804    72.054149    62.400724    35.948823   -40493.234   -308665.34 
    2430    1636.4008    161638.56    72.054794    72.054795    35.949145          120    39574.702    35670.816   -20891.834    2045.4861    2792.5369   -908.04054    72.054794    62.401283    35.949145    18117.894   -308846.86 
    2440    1526.0015    161642.93    72.055443    72.055444    35.949469          120    129057.93     125271.1    74508.023   -1386.8488    1908.7615   -2367.9523    72.055443    62.401845    35.949469    109612.35   -308609.86 
    2450    1629.8807    161647.33    72.056097    72.056098    35.949795          120    35074.203    40276.982   -27695.238    465.37242    2286.4931   -3199.4197    72.056097    62.402411    35.949795    15885.316    -308827.8 
    2460    1540.9253    161651.75    72.056755    72.056755    35.950123          120   -19703.174   -17651.011   -89577.121    3336.0099    2587.7456   -2875.6912    72.056755    62.402981    35.950123   -42310.435   -308636.22 
    2470    1589.9964    161656.19    72.057414    72.057415    35.950452          120    100197.73    92656.857    39140.691    -150.3681    2430.1633   -2724.7322    72.057414    62.403552    35.950452    77331.759   -308737.88 
    2480    1586.4288    161660.66    72.058078    72.058079    35.950783          120    103373.75    102091.84    42851.569   -1399.5977    2192.8419   -2510.3438    72.058078    62.404127    35.950783    82772.388   -308726.48 
    2490    1549.2043    161665.16    72.058747    72.058747    35.951117          120    -18246.83   -10497.385   -91063.498    2615.6026    1504.0001   -4042.2829    72.058747    62.404706    35.951117   -39935.904   -308644.48 
    2500    1621.9651    161669.67    72.059417    72.059418    35.951451          120     29385.17     27155.13   -42224.166    2203.2103    1787.8068      -4630.6    72.059417    62.405287    35.951451    4772.0446   -308796.08 
    2510    1532.9448     161674.2    72.060091    72.060091    35.951787          120    127874.32    120701.74     65130.81   -1143.8232     2442.985   -1933.4763    72.060091     62.40587    35.951787    104568.95   -308602.98 
    2520    1638.9877    161678.77    72.060769    72.060769    35.952125          120    43892.654    47171.258   -25984.274     799.2882    1178.4678   -2850.3592    72.060769    62.406457    35.952125    21693.213   -308825.38 
    2530    1536.0704    161683.35     72.06145     72.06145    35.952465          120   -25192.031   -19565.016   -104469.13    2919.4776   -137.21581   -6071.8292     72.06145    62.407047    35.952465    -49742.06   -308604.23 
    2540    1615.2943    161687.95    72.062132    72.062133    35.952806          120    90166.871     85111.14    19834.428    690.86464     1556.277    -3368.684    72.062132    62.407638    35.952806     65037.48   -308768.68 
    2550    1579.1439    161692.57    72.062819    72.062819    35.953148          120    109845.73    105763.29    42701.855    240.89636    2090.9535   -1585.1209    72.062819    62.408232    35.953148    86103.627    -308689.4 
    2560    1557.8242    161697.21    72.063509     72.06351    35.953493          120   -11165.368   -7141.9424   -92680.946    2296.0402   -723.82665   -4494.3824    72.063509     62.40883    35.953493   -36996.085   -308641.63 
    2570    1621.4483    161701.87    72.064202    72.064202    35.953838          120    19515.842    19391.251   -61492.645    1997.0037   -387.79907   -5012.4797    72.064202     62.40943    35.953838   -7528.5175   -308773.52 
    2580    1520.8901    161706.55    72.064896    72.064897    35.954185          120    126155.65    120035.33    57169.513    541.83489     2759.649   -2699.3505    72.064896    62.410032    35.954185    101120.16    -308557.3 
    2590    1636.5355    161711.26    72.065595    72.065596    35.954534          120    56874.942    54905.163   -20751.685    1168.8067    1255.7705   -2891.4666    72.065595    62.410637    35.954534    30342.807    -308800.3 
    2600    1517.6886    161715.98    72.066297    72.066298    35.954884          120   -24769.502   -24307.147   -113124.55    2235.8204    -1432.982   -4238.6404    72.066297    62.411245    35.954884   -54067.065   -308544.67 
    2610    1617.4495    161720.72    72.067001    72.067001    35.955235          120    83544.541    78274.787    7025.5855    1083.3173    1966.2337   -3791.8216    72.067001    62.411854    35.955235    56281.638   -308754.12 
    2620    1553.0874    161725.48    72.067708    72.067708    35.955587          120    117182.33    111943.08    44114.533    129.45582     3819.889   -3301.3131    72.067708    62.412466    35.955587    91079.979   -308613.58 
    2630    1575.9841    161730.26    72.068418    72.068419    35.955942          120    -820.7012   -2762.0289    -88686.42    1382.8275    265.86785    -3333.345    72.068418    62.413082    35.955942   -30756.383   -308659.14 
    2640    1599.6113    161735.06    72.069131    72.069132    35.956298          120    13371.456    9906.4651   -71456.426    1726.7726    207.54305   -3076.7863    72.069131    62.413699    35.956298   -16059.502   -308706.58 
    2650    1534.0556    161739.88    72.069847    72.069847    35.956655          120    124644.88    118422.73    52530.749    177.13929    4056.0775   -3437.4042    72.069847    62.414319    35.956655    98532.784   -308563.92 
    2660    1641.2218    161744.72    72.070566    72.070566    35.957013          120    68724.332    64321.704   -12520.432    409.87223    3131.5221   -3600.0727    72.070566    62.414942    35.957013    40175.201   -308788.33 
    2670    1513.4831    161749.58    72.071288    72.071289    35.957374          120   -23769.588   -24829.406   -113686.06     1438.934   -226.89219   -3119.7296    72.071288    62.415567    35.957374   -54095.018   -308514.45 
    2680    1639.7995    161754.46    72.072012    72.072013    35.957735          120    74537.102    70092.961   -1075.7612    609.12508    1554.4487   -3265.0019    72.072012    62.416194    35.957735    47851.434   -308779.36 
    2690    1546.5541    161759.36     72.07274     72.07274    35.958098          120    122387.47    116255.36    50741.977    535.42513    4088.9351   -3397.8198     72.07274    62.416824    35.958098    96461.604   -308577.64 
    2700    1600.5772    161764.28    72.073471    72.073472    35.958463          120    8742.4588    7055.3514   -78571.351    790.93728     1707.324   -4540.6828    72.073471    62.417458    35.958463   -20924.513   -308689.84 
    2710    1592.8723    161769.22    72.074205    72.074206    35.958829          120    4622.1465    4333.9162   -78770.341    45.025911   -919.39257   -4613.3288    72.074205    62.418093    35.958829   -23271.426   -308669.79 
    2720    1562.7012    161774.18    72.074941    72.074942    35.959196          120    120064.38    115581.66    54389.937    348.54972    2164.2487   -2985.0779    72.074941    62.418731    35.959196    96678.661   -308602.59 
    2730    1634.0695    161779.17    72.075682    72.075682    35.959566          120    78880.879    73982.488    3109.9028    1163.8461    3426.3732   -4152.6125    72.075682    62.419372    35.959566     51991.09   -308751.26 
    2740    1536.5297    161784.18    72.076426    72.076426    35.959937          120   -22053.009   -21883.499   -111193.75    233.53795   -281.69741   -6252.5704    72.076426    62.420016    35.959937   -51710.085   -308540.74 
    2750    1649.9711     161789.2    72.077172    72.077172    35.960309          120    63609.937    63958.139   -5528.6595   -748.66649   -491.31274    -4070.262    72.077172    62.420662    35.960309    40679.806   -308778.75 
    2760    1548.9707    161794.24    72.077921    72.077921    35.960683          120     125763.2    120498.57    62951.214    594.22664    2826.4932   -2645.0858    72.077921    62.421311    35.960683       103071   -308561.03 
    2770     1629.827    161799.32    72.078675    72.078675    35.961059          120    19874.547    15355.596   -64953.655    1814.3466    1828.2532   -5146.2461    72.078675    62.421964    35.961059   -9907.8376   -308729.34 
[...]
    9320    1763.8565    166245.24     72.73291    72.732911    36.287466          120   -15864.345   -23159.507   -94714.767    1535.6944    103.30694   -1763.4803     72.73291    62.988548    36.287466    -44579.54   -308213.26 
    9330    1790.9259    166249.99    72.733604    72.733605    36.287812          120    69716.513    73425.458     18340.32     2131.906    8472.2968   -3827.2248    72.733604    62.989149    36.287812    53827.431   -308271.36 
    9340    1801.3142    166254.75    72.734298    72.734299    36.288159          120    60796.214    65662.569    9767.8145    1011.9382    5411.4996   -2112.4247    72.734298    62.989751    36.288159    45408.866   -308294.02 
    9350    1769.7452    166259.51    72.734992    72.734993    36.288505          120    -22049.96   -29605.652   -99028.517   -461.26764   -1895.6902   -395.37373    72.734992    62.990352    36.288505   -50228.043   -308227.82 
    9360    1829.6756    166264.26    72.735685    72.735685    36.288851          120    22006.606     17494.03   -46211.802    1161.4524    4430.7676   -2615.4865    72.735685    62.990951    36.288851   -2237.0553   -308355.62 
    9370    1770.3068    166269.01    72.736376    72.736377    36.289196          120    84791.714     90625.31    37079.577    2780.1331    8334.3937   -2870.4274    72.736376     62.99155    36.289196      70832.2   -308229.57 
    9380    1840.4837    166273.75    72.737069    72.737069    36.289541          120      15534.6    15916.694   -46584.415    557.07684    1749.2275   -725.13005    72.737069     62.99215    36.289541   -5044.3734   -308379.58 
    9390    1781.2802    166278.49     72.73776     72.73776    36.289886          120   -21313.102   -30632.632   -98798.229   -962.99031    76.451397   -894.38803     72.73776    62.992748    36.289886   -50247.988    -308254.6 
    9400    1826.4875    166283.22    72.738449     72.73845     36.29023          120    65534.255     64098.03    8280.7125    1913.6857    6420.7399   -2143.7787    72.738449    62.993346     36.29023    45970.999   -308351.18 
    9410    1809.1061    166287.95    72.739139    72.739139    36.290574          120    64806.488    70322.472    15044.171    2440.9706    5660.9354   -985.92147    72.739139    62.993943    36.290574    50057.711   -308315.33 
    9420    1794.0218    166292.68    72.739828    72.739829    36.290918          120   -22490.456   -25800.428   -93679.489   -123.03231    281.99433    218.75044    72.739828     62.99454    36.290918   -47323.457   -308284.77 
    9430    1829.7119     166297.4    72.740516    72.740517    36.291261          120    15589.353     6529.887   -55236.398   -129.36739    2999.3229   -853.85389    72.740516    62.995135    36.291261   -11039.053    -308361.7 
    9440    1774.2647    166302.11    72.741203    72.741203    36.291604          120     86501.92      87425.9    37127.245    1448.7519     6092.231   -556.28605    72.741203     62.99573    36.291604    70351.688   -308244.96 
    9450    1834.7823    166306.82     72.74189    72.741891    36.291946          120     20476.21    24627.496   -36561.095    1692.1786    3416.2517    1061.0189     72.74189    62.996325    36.291946    2847.5369   -308374.74 
    9460    1772.0458    166311.53    72.742576    72.742577    36.292289          120    -24982.74   -32650.358   -101198.41    469.56339     2149.933    966.34552    72.742576     62.99692    36.292289   -52943.836   -308242.72 
    9470     1819.036    166316.23    72.743261    72.743262    36.292631          120    62119.217    55672.624    2384.2028   -321.92261     4480.776   -185.63183    72.743261    62.997513    36.292631    40058.681   -308343.67 
    9480    1792.6926    166320.92    72.743946    72.743947    36.292972          120    70471.629    74332.131    23128.218    954.13976    5185.1314    972.50853    72.743946    62.998106    36.292972    55977.326   -308288.65 
    9490    1789.6643    166325.62    72.744631    72.744631    36.293314          120   -19233.797   -19981.658    -87210.63    2048.3204    3912.2241    3114.1686    72.744631    62.998699    36.293314   -42142.028   -308283.43 
    9500    1811.1613    166330.31    72.745314    72.745315    36.293655          120     9116.013    440.20079   -62020.035    349.74065     3645.808     959.5389    72.745314    62.999291    36.293655    -17487.94   -308330.48 
    9510    1766.7449    166334.99    72.745997    72.745997    36.293995          120    86143.978    85081.018    37390.791   -1.3494431    4885.3835   -574.69854    72.745997    62.999882    36.293995    69538.596   -308236.73 
    9520    1823.5558    166339.67     72.74668     72.74668    36.294336          120    28147.108    31236.464   -26061.066    2202.0373    5060.6987    3161.7744     72.74668    63.000473    36.294336    11107.502   -308358.94 
    9530     1758.803    166344.36    72.747362    72.747363    36.294677          120   -27453.334   -33401.904    -101614.2    1350.1839     3903.689    3572.8786    72.747362    63.001064    36.294677    -54156.48   -308222.75 
    9540    1815.7609    166349.03    72.748043    72.748044    36.295016          120    54285.234    49768.198   -5416.5625   -23.495108    3760.6226   -1214.1426    72.748043    63.001654    36.295016    32878.957   -308344.65 
    9550    1780.4495     166353.7    72.748724    72.748724    36.295356          120    74609.713    78080.361    27505.595    2703.4212    4671.3712   -21.651669    72.748724    63.002244    36.295356    60065.223   -308270.67 
    9560      1787.45    166358.37    72.749405    72.749405    36.295696          120    -14148.96   -16375.765    -80896.17    2260.8669    4193.6898    4596.1432    72.749405    63.002833    36.295696   -37140.298   -308286.93 
    9570    1801.3955    166363.03    72.750084    72.750085    36.296035          120    489.92998   -5961.4466   -70731.397    -1005.336    2957.9846    1407.4082    72.750084    63.003422    36.296035   -25400.971   -308317.56 
    9580    1760.6985    166367.68    72.750763    72.750763    36.296373          120    81690.674    85040.758    31211.426    1835.3874    3796.4219   -2485.9824    72.750763    63.004009    36.296373    65980.953   -308232.04 
    9590    1814.8827    166372.34    72.751441    72.751442    36.296712          120    35194.357    38387.062   -19634.011    3809.9103    3770.8623    1352.1276    72.751441    63.004597    36.296712     17982.47   -308348.38 
    9600    1745.6388    166376.99    72.752119     72.75212     36.29705          120   -28633.093   -37065.112   -102870.86    -361.4458    2853.9761    4635.8272    72.752119    63.005184     36.29705   -56189.688   -308202.21 
    9610    1811.2871    166381.63    72.752796    72.752796    36.297387          120     44337.69    44870.774    -15954.03    -976.8696    3310.7653   -549.42693    72.752796     63.00577    36.297387    24418.144   -308342.49 
    9620    1760.1261    166386.27    72.753472    72.753472    36.297725          120    75209.693    85066.024    27840.819    2292.3471    3360.9554   -2353.3255    72.753472    63.006356    36.297725    62705.512   -308234.44 
    9630    1791.6232    166390.91    72.754148    72.754149    36.298062          120   -8223.0528   -13267.414    -73921.48    2113.7937    3038.1705    3039.8613    72.754148    63.006941    36.298062   -31803.982    -308302.2 
    9640    1787.1703    166395.54    72.754823    72.754824    36.298399          120   -7077.4023   -13779.893   -77461.363    -1134.309    3649.0239    3372.0335    72.754823    63.007526    36.298399   -32772.886   -308293.69 
    9650    1768.2985    166400.16    72.755497    72.755497    36.298735          120    74552.562    85926.971    25386.338   -1745.9141    3814.2937   -1851.3413    72.755497    63.008109    36.298735     61955.29   -308253.49 
    9660    1819.4647    166404.78     72.75617    72.756171    36.299071          120    40418.228    46509.531   -12411.926     782.6726    3285.0784    -1034.597     72.75617    63.008692    36.299071    24838.611   -308362.88 
    9670    1753.6785     166409.4    72.756844    72.756844    36.299407          120    -28733.29   -39308.361   -101737.58    1771.3502    3748.6156    4197.8415    72.756844    63.009275    36.299407   -56593.078   -308224.25 
    9680    1829.3197    166414.01    72.757515    72.757516    36.299742          120    34558.093    38173.818   -24321.015   -2027.1438    4662.2798     1447.917    72.757515    63.009857    36.299742    16136.965   -308385.31 
    9690    1767.6099    166418.62    72.758186    72.758187    36.300077          120    75636.332     89938.15    29308.939   -3507.2787    3884.4687   -2767.6322    72.758186    63.010438    36.300077     64961.14   -308254.34 
    9700    1814.8948    166423.22    72.758857    72.758858    36.300412          120   -1845.1347   -5718.9211   -68068.576    1506.6058    3141.1431    1745.0114    72.758857    63.011019    36.300412   -25210.877   -308355.93 
    9710    1787.9713    166427.82    72.759527    72.759528    36.300746          120   -13506.927   -20541.067   -82684.114    1927.9249    4621.4069    4259.0209    72.759527      63.0116    36.300746   -38910.703   -308299.51 
    9720    1789.7413    166432.41    72.760196    72.760196    36.301079          120    70392.727    81768.515    22076.491    -4465.688    4700.5928   -1589.7677    72.760196    63.012178    36.301079    58079.244   -308303.94 
    9730    1812.3233    166436.99    72.760864    72.760865    36.301413          120    48743.543    55144.793   -7383.4479   -2891.3197    2976.4927   -1464.5406    72.760864    63.012758    36.301413    32168.296    -308353.1 
    9740    1761.8637    166441.58    72.761533    72.761533    36.301746          120   -27222.786   -36458.589    -100733.8    3581.6951    3283.3696     3873.617    72.761533    63.013336    36.301746   -54805.057   -308246.94 
    9750    1822.1586    166446.16    72.762199      72.7622    36.302079          120    27275.347    28997.929   -29584.754   -1096.6953    4869.5595     1598.416    72.762199    63.013914    36.302079    8896.1738   -308375.93 
    9760    1756.2657    166450.73    72.762865    72.762866    36.302411          120    80285.542    90208.336    31721.602   -6007.8593    3416.6058      -2845.9    72.762865    63.014491    36.302411     67405.16   -308236.73 
    9770    1812.9049     166455.3    72.763532    72.763532    36.302744          120    6873.6732    3162.6912   -62746.638    487.17385    2038.2775   -77.022081    72.763532    63.015068    36.302744   -17570.091   -308358.03 
    9780    1769.1927    166459.87    72.764197    72.764198    36.303076          120    -18628.75   -24466.126   -86631.715    2758.7973    3279.2686    3189.4352    72.764197    63.015644    36.303076   -43242.197   -308266.17 
    9790    1787.4185    166464.43    72.764861    72.764862    36.303407          120    66886.825     74079.21    19155.384   -4813.8136    3567.0548   -552.02562    72.764861    63.016219    36.303407    53373.806   -308305.56 
    9800    1797.1993    166468.98    72.765525    72.765526    36.303738          120    57726.069    59655.553   -1685.5512   -3824.3431    1746.6094   -2848.4413    72.765525    63.016794    36.303738    38565.357   -308327.21 
    9810    1758.6724    166473.54    72.766189     72.76619     36.30407          120   -25395.445   -32574.531   -99187.475    3152.3971    1774.1478    171.96566    72.766189    63.017369     36.30407   -52385.817   -308247.03 
    9820    1807.0542    166478.09    72.766852    72.766852      36.3044          120    18029.316    20433.886   -37473.932   -593.43151    3413.2298    2181.7032    72.766852    63.017943      36.3044     329.7566   -308350.85 
    9830    1748.5269    166482.63    72.767513    72.767514     36.30473          120    82200.299     87477.66    32253.963   -5264.5908    2703.9783   -1156.7591    72.767513    63.018516     36.30473    67310.641   -308227.66 
    9840     1796.616    166487.17    72.768175    72.768176    36.305061          120    13781.624    8609.8352   -55033.919    206.74015    1943.2973   -2666.2151    72.768175    63.019089    36.305061    -10880.82   -308331.36 
    9850    1747.4928    166491.71    72.768836    72.768837     36.30539          120    -25205.36   -27364.587   -92491.206    2985.1292    2962.0248    860.88643    72.768836    63.019661     36.30539   -48353.718    -308228.4 
    9860    1771.7295    166496.23    72.769495    72.769496    36.305719          120    60740.222    67037.868    11536.889   -2851.1031    3269.4206    1985.7913    72.769495    63.020232    36.305719    46438.327   -308280.55 
    9870    1767.2284    166500.76    72.770155    72.770155    36.306048          120     62915.66    62241.453    6356.2822   -2531.2918    2662.4206   -1442.6198    72.770155    63.020803    36.306048    43837.798   -308272.06 
    9880    1741.4932    166505.28    72.770814    72.770814    36.306377          120   -23742.846   -30543.396   -96401.245    3291.3567    2685.5294   -2169.5179    72.770814    63.021374    36.306377   -50229.162    -308218.3 
    9890    1787.2792    166509.79    72.771471    72.771472    36.306705          120    10920.949    12840.554   -49351.859    1248.6871    2702.3431    2207.6607    72.771471    63.021943    36.306705   -8530.1187   -308316.24 
    9900    1731.8501     166514.3    72.772127    72.772128    36.307032          120    80777.718    85923.128    32379.828   -2642.6799    2459.0421    1472.5285    72.772127    63.022512    36.307032    66360.225   -308198.93 
    9910    1795.9134     166518.8    72.772784    72.772784     36.30736          120    19086.297    13063.972   -45072.993    632.07775    2507.1978   -1911.2243    72.772784     63.02308     36.30736   -4307.5748   -308335.54 
    9920     1743.039     166523.3    72.773439     72.77344    36.307687          120   -26436.452   -32796.566    -99150.65    4295.0862    2452.9252   -155.63152    72.773439    63.023648    36.307687   -52794.556   -308224.05 
    9930    1784.0509    166527.79    72.774093    72.774094    36.308013          120    55216.061    60886.078    2032.1952   -20.557385    1626.0917    3166.6203    72.774093    63.024214    36.308013    39378.111   -308311.59 
    9940    1775.5245    166532.28    72.774747    72.774747    36.308339          120    64867.811    66447.726    13234.168   -2104.6654    1685.8426    747.45415    72.774747     63.02478    36.308339    48183.235   -308293.42 
    9950    1761.4671    166536.76      72.7754    72.775401    36.308665          120   -19916.111   -30162.295   -91438.085    3627.2439    2197.3035   -393.55184      72.7754    63.025346    36.308665   -47172.164   -308264.59 
    9960    1798.4282    166541.24    72.776052    72.776052     36.30899          120    5735.9792    5066.9669   -60468.674    3669.8105    1207.0171    2468.0066    72.776052     63.02591     36.30899   -16555.243   -308343.78 
    9970    1746.2089     166545.7    72.776702    72.776703    36.309315          120    78670.711    85752.817    29000.221    -2004.836    1000.0737    2495.4456    72.776702    63.026473    36.309315    64474.583   -308232.99 
    9980    1808.6661    166550.17    72.777353    72.777353    36.309639          120    24628.403    19016.617    -35168.09    584.00074    1439.1122    1896.8606    72.777353    63.027037    36.309639    2825.6436   -308366.53 
    9990    1741.4414    166554.63    72.778002    72.778003    36.309963          120   -28279.665   -36565.301   -101275.37    5229.3847    841.73323    2014.9184    72.778002    63.027599    36.309963   -55373.444   -308224.62 
   10000    1799.4566    166559.08     72.77865    72.778651    36.310286          120    50047.882    55482.727   -8453.5942    100.97365    979.79393    1861.0778     72.77865     63.02816    36.310286    32359.005   -308348.11 
Loop time of 3796.88 on 1 procs for 10000 steps with 15616 atoms

Performance: 0.023 ns/day, 1054.688 hours/ns, 2.634 timesteps/s
100.0% CPU use with 1 MPI tasks x no OpenMP threads

MPI task timing breakdown:
Section |  min time  |  avg time  |  max time  |%varavg| %total
---------------------------------------------------------------
Pair    | 3268.8     | 3268.8     | 3268.8     |   0.0 | 86.09
Bond    | 0.38778    | 0.38778    | 0.38778    |   0.0 |  0.01
Kspace  | 138.59     | 138.59     | 138.59     |   0.0 |  3.65
Neigh   | 305.71     | 305.71     | 305.71     |   0.0 |  8.05
Comm    | 3.9212     | 3.9212     | 3.9212     |   0.0 |  0.10
Output  | 0.1301     | 0.1301     | 0.1301     |   0.0 |  0.00
Modify  | 78.125     | 78.125     | 78.125     |   0.0 |  2.06
Other   |            | 1.227      |            |       |  0.03

Nlocal:    15616 ave 15616 max 15616 min
Histogram: 1 0 0 0 0 0 0 0 0 0
Nghost:    48610 ave 48610 max 48610 min
Histogram: 1 0 0 0 0 0 0 0 0 0
Neighs:    1.09466e+07 ave 1.09466e+07 max 1.09466e+07 min
Histogram: 1 0 0 0 0 0 0 0 0 0

Total # of neighbors = 10946634
Ave neighs/atom = 700.988
Ave special neighs/atom = 0.0983607
Neighbor list builds = 822
Dangerous builds therthermo		0
reset_timestep	0
fix		2 all ave/time 1 1 500 c_thermo_temp c_thermo_pe c_thermo_press v_myVol v_myCella v_myCellb v_myCellc v_myCellgamma file data/current_run/cp_rawTemp${probeTemp}.dat # Potential energy, parameters, volume
fix		2 all ave/time 1 1 500 c_thermo_temp c_thermo_pe c_thermo_press v_myVol v_myCella v_myCellb v_myCellc v_myCellgamma file data/current_run/cp_rawTemp1800.dat 
run 		100000
PPPM initialization ...
  using 12-bit tables for long-range coulomb (../kspace.cpp:321)
  G vector (1/distance) = 0.202267
  grid = 36 50 24
  stencil order = 5
  estimated absolute RMS force accuracy = 0.000998887
  estimated relative force accuracy = 6.93688e-05
  using double precision FFTs
  3d grid and FFT values/proc = 65395 43200
Per MPI rank memory allocation (min/avg/max) = 168.8 | 168.8 | 168.8 Mbytes
Step Temp Volume Cella Cellb Cellc CellGamma Pxx Pyy Pzz Pxy Pxz Pyz Lx Ly Lz Press PotEng 
       0    1799.4566    166559.08     72.77865    72.778651    36.310286          120    50042.952    55477.788   -8453.9689    100.79269    979.75492    1861.1398     72.77865     63.02816    36.310286    32355.591   -308348.17 
  100000    1807.1914    169456.56    73.198248    73.198249     36.51963          120    19607.185    15381.313   -47722.854   -201.66699    5515.3966   -267.63298    73.198248    63.391543     36.51963   -4244.7852   -308369.37 
Loop time of 41202.4 on 1 procs for 100000 steps with 15616 atoms

Performance: 0.021 ns/day, 1144.511 hours/ns, 2.427 timesteps/s
86.7% CPU use with 1 MPI tasks x no OpenMP threads

MPI task timing breakdown:
Section |  min time  |  avg time  |  max time  |%varavg| %total
---------------------------------------------------------------
Pair    | 34961      | 34961      | 34961      |   0.0 | 84.85
Bond    | 3.8698     | 3.8698     | 3.8698     |   0.0 |  0.01
Kspace  | 1374.7     | 1374.7     | 1374.7     |   0.0 |  3.34
Neigh   | 3105.3     | 3105.3     | 3105.3     |   0.0 |  7.54
Comm    | 38.94      | 38.94      | 38.94      |   0.0 |  0.09
Output  | 0.00012493 | 0.00012493 | 0.00012493 |   0.0 |  0.00
Modify  | 1706.5     | 1706.5     | 1706.5     |   0.0 |  4.14
Other   |            | 12.2       |            |       |  0.03

Nlocal:    15616 ave 15616 max 15616 min
Histogram: 1 0 0 0 0 0 0 0 0 0
Nghost:    48151 ave 48151 max 48151 min
Histogram: 1 0 0 0 0 0 0 0 0 0
Neighs:    1.07538e+07 ave 1.07538e+07 max 1.07538e+07 min
Histogram: 1 0 0 0 0 0 0 0 0 0

Total # of neighbors = 10753843
Ave neighs/atom = 688.643
Ave special neighs/atom = 0.0983607
Neighbor list builds = 8415
Dangerous builds = 0
unfix		2
variable	probeTemp delete

print		" "
 
print		"All done!"
All done!
Total wall time: 12:33:25

