LAMMPS (22 Aug 2018)
  using 1 OpenMP thread(s) per MPI task
# Fin dminimud floating point parameter in input script or data file (../fix_nh.cpp:132)energy for Beryl

#----- Initialize Simulation -----
clear
  using 1 OpenMP thread(s) per MPI task
units 		metal
boundary 	p p p
atom_style 	full
bond_style	none
variable	etol equal 1e-25
variable 	ftol equal 1e-25
variable 	maxiter equal 5000
variable 	maxeval equal 10000
variable	probeTemp equal 13

#----- Create Atoms -----
read_data 	beryl.mod
  triclinic box = (0 0 0) to (9.208 7.97436 18.376) with tilt (-4.604 0 0)
  1 by 1 by 1 MPI processor grid
  reading atoms ...
  116 atoms
  0 = max # of 1-2 neighbors
  0 = max # of 1-3 neighbors
  0 = max # of 1-4 neighbors
  1 = max # of special neighbors
replicate 	8 8 2
  triclinic box = (0 0 0) to (73.664 63.7949 36.752) with tilt (-36.832 0 0)
  1 by 1 by 1 MPI processor grid
  14848 atoms
  0 = max # of 1-2 neighbors
  0 = max # of 1-3 neighbors
  0 = max # of 1-4 neighbors
  1 = max # of special neighbors
  Time spent = 0.00982499 secs

#----- Define Interatomic Potential -----
include 	potential_main.mod
kspace_style 	pppm 1.0e-4

# Neighbor Style
neighbor	0.3 bin
neigh_modify	delay 0 every 1 check yes

# Minimization style
min_style	cg

# Setup Output
thermo		100
thermo_style	custom	step temp vol cella cellb cellc cellgamma pxx pyy pzz pxy pxz pyz lx ly lz press pe #c_eatoms
thermo_modify	norm no
variable 	myVol equal vol
variable	myCella equal cella
variable	myCellb equal cellb
variable	myCellc equal cellc
variable	myCellgamma equal cellgamma
include 	potential_beryl.mod
# Potential Paramters
pair_style 	hybrid/overlay morse 5.5 buck 5.5 lj/cut/coul/long 5.5 15.0
pair_coeff    1    1 morse     		  0 	       0           0  # Be Be
pair_coeff    1    1 buck                 0            1           -201.0
pair_coeff    1    1 lj/cut/coul/long	  10120.	0.413
pair_coeff    1    2 morse     		  0 	       0           0  # Be Al
pair_coeff    1    2 buck                 0            1           0
pair_coeff    1    2 lj/cut/coul/long	  0	       0
pair_coeff    1    3 morse     		  0 	       0           0  # Al Si
pair_coeff    1    3 buck                 0            1           0
pair_coeff    1    3 lj/cut/coul/long	  0	       0
pair_coeff    1    4 morse 		  0.239919     2.527420    1.815405	#Be O
pair_coeff    1    4 buck                 0.000000     1.000000   -46.00000
pair_coeff    1    4 lj/cut/coul/long     529.000      0.528
pair_coeff    2    2 morse     		  0 	       0           0  # Al Al
pair_coeff    2    2 buck                 0            1           -492.
pair_coeff    2    2 lj/cut/coul/long	  60423		0.356
pair_coeff    2    3 morse     		  0 	       0           0  # Al si
pair_coeff    2    3 buck                 0            1           0
pair_coeff    2    3 lj/cut/coul/long	  0	       0
pair_coeff    2    4 morse 		  0.361581     1.900442    2.164818	#Al O
pair_coeff    2    4 buck                 0.000000     1.000000   -71.5
pair_coeff    2    4 lj/cut/coul/long     1420.0	0.482
pair_coeff    3    3 morse     		  0 	       0           0  # Si Si
pair_coeff    3    3 buck                 0            1           -282.
pair_coeff    3    3 lj/cut/coul/long	  19730		0.391
pair_coeff    3    4 morse 		  0.340554     2.006700    2.100000	#Si O
pair_coeff    3    4 buck                 0.000000     1.000000   -60.5
pair_coeff    3    4 lj/cut/coul/long     916.		0.504
pair_coeff    4    4 morse     		  0.042395     1.379316    3.618701  # O O
pair_coeff    4    4 buck                 0.000000     1.000000   -16.7
pair_coeff    4    4 lj/cut/coul/long	  3.16		1.05
#------ Define Settings -----

# ----- Run Minimization -----
#minimize	1e-25 1e-25 5000 10000 # Performs actual minimization

#include		calcLatticeParams.mod

reset_timestep	0
timestep	0.0005
velocity       	all create ${probeTemp} 87287 loop geom
velocity       	all create 13 87287 loop geom
#run		10000 # Warmup
#thermo		0
reset_timestep	0
run 		100000
WARNING: No fixes defined, atoms won't move (../verlet.cpp:55)
PPPM initialization ...
WARNING: System is not charge neutral, net charge = -0.2048 (../kspace.cpp:302)
  using 12-bit tables for long-range coulomb (../kspace.cpp:321)
  G vector (1/distance) = 0.201681
  grid = 36 50 24
  stencil order = 5
  estimated absolute RMS force accuracy = 0.00105653
  estimated relative force accuracy = 7.33721e-05
  using double precision FFTs
  3d grid and FFT values/proc = 65395 43200
Neighbor list info ...
  update every 1 steps, delay 0 steps, check yes
  max neighbors/atom: 2000, page size: 100000
  master list distance cutoff = 15.3
  ghost atom cutoff = 15.3
  binsize = 7.65, bins = 15 9 5
  3 neighbor lists, perpetual/occasional/extra = 3 0 0
  (1) pair morse, perpetual
      attributes: half, newton on
      pair build: half/bin/newton/tri
      stencil: half/bin/3d/newton/tri
      bin: standard
  (2) pair buck, perpetual, copy from (1)
      attributes: half, newton on
      pair build: copy
      stencil: none
      bin: none
  (3) pair lj/cut/coul/long, perpetual, copy from (1)
      attributes: half, newton on
      pair build: copy
      stencil: none
      bin: none
Per MPI rank memory allocation (min/avg/max) = 145.7 | 145.7 | 145.7 Mbytes
Step Temp Volume Cella Cellb Cellc CellGamma Pxx Pyy Pzz Pxy Pxz Pyz Lx Ly Lz Press PotEng 
       0           13    172711.88       73.664    73.664001       36.752          120    -204182.5   -204173.22   -275718.91   0.94256837   0.70681339   0.29969265       73.664    63.794896       36.752   -228024.88   -308813.26 
     100           13    172711.88       73.664    73.664001       36.752          120    -204182.5   -204173.22   -275718.91   0.94256837   0.70681339   0.29969265       73.664    63.794896       36.752   -228024.88   -308813.26 
     200           13    172711.88       73.664    73.664001       36.752          120    -204182.5   -204173.22   -275718.91   0.94256837   0.70681339   0.29969265       73.664    63.794896       36.752   -228024.88   -308813.26 
     300           13    172711.88       73.664    73.664001       36.752          120    -204182.5   -204173.22   -275718.91   0.94256837   0.70681339   0.29969265       73.664    63.794896       36.752   -228024.88   -308813.26 
     400           13    172711.88       73.664    73.664001       36.752          120    -204182.5   -204173.22   -275718.91   0.94256837   0.70681339   0.29969265       73.664    63.794896       36.752   -228024.88   -308813.26 
     500           13    172711.88       73.664    73.664001       36.752          120    -204182.5   -204173.22   -275718.91   0.94256837   0.70681339   0.29969265       73.664    63.794896       36.752   -228024.88   -308813.26 
     600           13    172711.88       73.664    73.664001       36.752          120    -204182.5   -204173.22   -275718.91   0.94256837   0.70681339   0.29969265       73.664    63.794896       36.752   -228024.88   -308813.26 
     700           13    172711.88       73.664    73.664001       36.752          120    -204182.5   -204173.22   -275718.91   0.94256837   0.70681339   0.29969265       73.664    63.794896       36.752   -228024.88   -308813.26 
     800           13    172711.88       73.664    73.664001       36.752          120    -204182.5   -204173.22   -275718.91   0.94256837   0.70681339   0.29969265       73.664    63.794896       36.752   -228024.88   -308813.26 
     900           13    172711.88       73.664    73.664001       36.752          120    -204182.5   -204173.22   -275718.91   0.94256837   0.70681339   0.29969265       73.664    63.794896       36.752   -228024.88   -308813.26 
    1000           13    172711.88       73.664    73.664001       36.752          120    -204182.5   -204173.22   -275718.91   0.94256837   0.70681339   0.29969265       73.664    63.794896       36.752   -228024.88   -308813.26 
    1100           13    172711.88       73.664    73.664001       36.752          120    -204182.5   -204173.22   -275718.91   0.94256837   0.70681339   0.29969265       73.664    63.794896       36.752   -228024.88   -308813.26 
    1200           13    172711.88       73.664    73.664001       36.752          120    -204182.5   -204173.22   -275718.91   0.94256837   0.70681339   0.29969265       73.664    63.794896       36.752   -228024.88   -308813.26 
    1300           13    172711.88       73.664    73.664001       36.752          120    -204182.5   -204173.22   -275718.91   0.94256837   0.70681339   0.29969265       73.664    63.794896       36.752   -228024.88   -308813.26 
    1400           13    172711.88       73.664    73.664001       36.752          120    -204182.5   -204173.22   -275718.91   0.94256837   0.70681339   0.29969265       73.664    63.794896       36.752   -228024.88   -308813.26 
    1500           13    172711.88       73.664    73.664001       36.752          120    -204182.5   -204173.22   -275718.91   0.94256837   0.70681339   0.29969265       73.664    63.794896       36.752   -228024.88   -308813.26 
    1600           13    172711.88       73.664    73.664001       36.752          120    -204182.5   -204173.22   -275718.91   0.94256837   0.70681339   0.29969265       73.664    63.794896       36.752   -228024.88   -308813.26 
    1700           13    172711.88       73.664    73.664001       36.752          120    -204182.5   -204173.22   -275718.91   0.94256837   0.70681339   0.29969265       73.664    63.794896       36.752   -228024.88   -308813.26 
    1800           13    172711.88       73.664    73.664001       36.752          120    -204182.5   -204173.22   -275718.91   0.94256837   0.70681339   0.29969265       73.664    63.794896       36.752   -228024.88   -308813.26 
    1900           13    172711.88       73.664    73.664001       36.752          120    -204182.5   -204173.22   -275718.91   0.94256837   0.70681339   0.29969265       73.664    63.794896       36.752   -228024.88   -308813.26 
    2000           13    172711.88       73.664    73.664001       36.752          120    -204182.5   -204173.22   -275718.91   0.94256837   0.70681339   0.29969265       73.664    63.794896       36.752   -228024.88   -308813.26 
    2100           13    172711.88       73.664    73.664001       36.752          120    -204182.5   -204173.22   -275718.91   0.94256837   0.70681339   0.29969265       73.664    63.794896       36.752   -228024.88   -308813.26 
    2200           13    172711.88       73.664    73.664001       36.752          120    -204182.5   -204173.22   -275718.91   0.94256837   0.70681339   0.29969265       73.664    63.794896       36.752   -228024.88   -308813.26 
    2300           13    172711.88       73.664    73.664001       36.752          120    -204182.5   -204173.22   -275718.91   0.94256837   0.70681339   0.29969265       73.664    63.794896       36.752   -228024.88   -308813.26 
    2400           13    172711.88       73.664    73.664001       36.752          120    -204182.5   -204173.22   -275718.91   0.94256837   0.70681339   0.29969265       73.664    63.794896       36.752   -228024.88   -308813.26 
    2500           13    172711.88       73.664    73.664001       36.752          120    -204182.5   -204173.22   -275718.91   0.94256837   0.70681339   0.29969265       73.664    63.794896       36.752   -228024.88   -308813.26 
    2600           13    172711.88       73.664    73.664001       36.752          120    -204182.5   -204173.22   -275718.91   0.94256837   0.70681339   0.29969265       73.664    63.794896       36.752   -228024.88   -308813.26 
    2700           13    172711.88       73.664    73.664001       36.752          120    -204182.5   -204173.22   -275718.91   0.94256837   0.70681339   0.29969265       73.664    63.794896       36.752   -228024.88   -308813.26 
    2800           13    172711.88       73.664    73.664001       36.752          120    -204182.5   -204173.22   -275718.91   0.94256837   0.70681339   0.29969265       73.664    63.794896       36.752   -228024.88   -308813.26 
    2900           13    172711.88       73.664    73.664001       36.752          120    -204182.5   -204173.22   -275718.91   0.94256837   0.70681339   0.29969265       73.664    63.794896       36.752   -228024.88   -308813.26 
    3000           13    172711.88       73.664    73.664001       36.752          120    -204182.5   -204173.22   -275718.91   0.94256837   0.70681339   0.29969265       73.664    63.794896       36.752   -228024.88   -308813.26 
    3100           13    172711.88       73.664    73.664001       36.752          120    -204182.5   -204173.22   -275718.91   0.94256837   0.70681339   0.29969265       73.664    63.794896       36.752   -228024.88   -308813.26 
    3200           13    172711.88       73.664    73.664001       36.752          120    -204182.5   -204173.22   -275718.91   0.94256837   0.70681339   0.29969265       73.664    63.794896       36.752   -228024.88   -308813.26 
    3300           13    172711.88       73.664    73.664001       36.752          120    -204182.5   -204173.22   -275718.91   0.94256837   0.70681339   0.29969265       73.664    63.794896       36.752   -228024.88   -308813.26 
    3400           13    172711.88       73.664    73.664001       36.752          120    -204182.5   -204173.22   -275718.91   0.94256837   0.70681339   0.29969265       73.664    63.794896       36.752   -228024.88   -308813.26 
    3500           13    172711.88       73.664    73.664001       36.752          120    -204182.5   -204173.22   -275718.91   0.94256837   0.70681339   0.29969265       73.664    63.794896       36.752   -228024.88   -308813.26 
    3600           13    172711.88       73.664    73.664001       36.752          120    -204182.5   -204173.22   -275718.91   0.94256837   0.70681339   0.29969265       73.664    63.794896       36.752   -228024.88   -308813.26 
    3700           13    172711.88       73.664    73.664001       36.752          120    -204182.5   -204173.22   -275718.91   0.94256837   0.70681339   0.29969265       73.664    63.794896       36.752   -228024.88   -308813.26 
    3800           13    172711.88       73.664    73.664001       36.752          120    -204182.5   -204173.22   -275718.91   0.94256837   0.70681339   0.29969265       73.664    63.794896       36.752   -228024.88   -308813.26 
    3900           13    172711.88       73.664    73.664001       36.752          120    -204182.5   -204173.22   -275718.91   0.94256837   0.70681339   0.29969265       73.664    63.794896       36.752   -228024.88   -308813.26 
    4000           13    172711.88       73.664    73.664001       36.752          120    -204182.5   -204173.22   -275718.91   0.94256837   0.70681339   0.29969265       73.664    63.794896       36.752   -228024.88   -308813.26 
    4100           13    172711.88       73.664    73.664001       36.752          120    -204182.5   -204173.22   -275718.91   0.94256837   0.70681339   0.29969265       73.664    63.794896       36.752   -228024.88   -308813.26 
    4200           13    172711.88       73.664    73.664001       36.752          120    -204182.5   -204173.22   -275718.91   0.94256837   0.70681339   0.29969265       73.664    63.794896       36.752   -228024.88   -308813.26 
    4300           13    172711.88       73.664    73.664001       36.752          120    -204182.5   -204173.22   -275718.91   0.94256837   0.70681339   0.29969265       73.664    63.794896       36.752   -228024.88   -308813.26 
    4400           13    172711.88       73.664    73.664001       36.752          120    -204182.5   -204173.22   -275718.91   0.94256837   0.70681339   0.29969265       73.664    63.794896       36.752   -228024.88   -308813.26 
    4500           13    172711.88       73.664    73.664001       36.752          120    -204182.5   -204173.22   -275718.91   0.94256837   0.70681339   0.29969265       73.664    63.794896       36.752   -228024.88   -308813.26 
    4600           13    172711.88       73.664    73.664001       36.752          120    -204182.5   -204173.22   -275718.91   0.94256837   0.70681339   0.29969265       73.664    63.794896       36.752   -228024.88   -308813.26 
    4700           13    172711.88       73.664    73.664001       36.752          120    -204182.5   -204173.22   -275718.91   0.94256837   0.70681339   0.29969265       73.664    63.794896       36.752   -228024.88   -308813.26 
    4800           13    172711.88       73.664    73.664001       36.752          120    -204182.5   -204173.22   -275718.91   0.94256837   0.70681339   0.29969265       73.664    63.794896       36.752   -228024.88   -308813.26 
    4900           13    172711.88       73.664    73.664001       36.752          120    -204182.5   -204173.22   -275718.91   0.94256837   0.70681339   0.29969265       73.664    63.794896       36.752   -228024.88   -308813.26 
    5000           13    172711.88       73.664    73.664001       36.752          120    -204182.5   -204173.22   -275718.91   0.94256837   0.70681339   0.29969265       73.664    63.794896       36.752   -228024.88   -308813.26 
    5100           13    172711.88       73.664    73.664001       36.752          120    -204182.5   -204173.22   -275718.91   0.94256837   0.70681339   0.29969265       73.664    63.794896       36.752   -228024.88   -308813.26 
    5200           13    172711.88       73.664    73.664001       36.752          120    -204182.5   -204173.22   -275718.91   0.94256837   0.70681339   0.29969265       73.664    63.794896       36.752   -228024.88   -308813.26 
    5300           13    172711.88       73.664    73.664001       36.752          120    -204182.5   -204173.22   -275718.91   0.94256837   0.70681339   0.29969265       73.664    63.794896       36.752   -228024.88   -308813.26 
    5400           13    172711.88       73.664    73.664001       36.752          120    -204182.5   -204173.22   -275718.91   0.94256837   0.70681339   0.29969265       73.664    63.794896       36.752   -228024.88   -308813.26 
    5500           13    172711.88       73.664    73.664001       36.752          120    -204182.5   -204173.22   -275718.91   0.94256837   0.70681339   0.29969265       73.664    63.794896       36.752   -228024.88   -308813.26 
    5600           13    172711.88       73.664    73.664001       36.752          120    -204182.5   -204173.22   -275718.91   0.94256837   0.70681339   0.29969265       73.664    63.794896       36.752   -228024.88   -308813.26 
    5700           13    172711.88       73.664    73.664001       36.752          120    -204182.5   -204173.22   -275718.91   0.94256837   0.70681339   0.29969265       73.664    63.794896       36.752   -228024.88   -308813.26 
    5800           13    172711.88       73.664    73.664001       36.752          120    -204182.5   -204173.22   -275718.91   0.94256837   0.70681339   0.29969265       73.664    63.794896       36.752   -228024.88   -308813.26 
    5900           13    172711.88       73.664    73.664001       36.752          120    -204182.5   -204173.22   -275718.91   0.94256837   0.70681339   0.29969265       73.664    63.794896       36.752   -228024.88   -308813.26 
    6000           13    172711.88       73.664    73.664001       36.752          120    -204182.5   -204173.22   -275718.91   0.94256837   0.70681339   0.29969265       73.664    63.794896       36.752   -228024.88   -308813.26 
    6100           13    172711.88       73.664    73.664001       36.752          120    -204182.5   -204173.22   -275718.91   0.94256837   0.70681339   0.29969265       73.664    63.794896       36.752   -228024.88   -308813.26 
    6200           13    172711.88       73.664    73.664001       36.752          120    -204182.5   -204173.22   -275718.91   0.94256837   0.70681339   0.29969265       73.664    63.794896       36.752   -228024.88   -308813.26 
    6300           13    172711.88       73.664    73.664001       36.752          120    -204182.5   -204173.22   -275718.91   0.94256837   0.70681339   0.29969265       73.664    63.794896       36.752   -228024.88   -308813.26 
    6400           13    172711.88       73.664    73.664001       36.752          120    -204182.5   -204173.22   -275718.91   0.94256837   0.70681339   0.29969265       73.664    63.794896       36.752   -228024.88   -308813.26 
    6500           13    172711.88       73.664    73.664001       36.752          120    -204182.5   -204173.22   -275718.91   0.94256837   0.70681339   0.29969265       73.664    63.794896       36.752   -228024.88   -308813.26 
    6600           13    172711.88       73.664    73.664001       36.752          120    -204182.5   -204173.22   -275718.91   0.94256837   0.70681339   0.29969265       73.664    63.794896       36.752   -228024.88   -308813.26 
    6700           13    172711.88       73.664    73.664001       36.752          120    -204182.5   -204173.22   -275718.91   0.94256837   0.70681339   0.29969265       73.664    63.794896       36.752   -228024.88   -308813.26 
    6800           13    172711.88       73.664    73.664001       36.752          120    -204182.5   -204173.22   -275718.91   0.94256837   0.70681339   0.29969265       73.664    63.794896       36.752   -228024.88   -308813.26 
    6900           13    172711.88       73.664    73.664001       36.752          120    -204182.5   -204173.22   -275718.91   0.94256837   0.70681339   0.29969265       73.664    63.794896       36.752   -228024.88   -308813.26 
    7000           13    172711.88       73.664    73.664001       36.752          120    -204182.5   -204173.22   -275718.91   0.94256837   0.70681339   0.29969265       73.664    63.794896       36.752   -228024.88   -308813.26 
    7100           13    172711.88       73.664    73.664001       36.752          120    -204182.5   -204173.22   -275718.91   0.94256837   0.70681339   0.29969265       73.664    63.794896       36.752   -228024.88   -308813.26 
    7200           13    172711.88       73.664    73.664001       36.752          120    -204182.5   -204173.22   -275718.91   0.94256837   0.70681339   0.29969265       73.664    63.794896       36.752   -228024.88   -308813.26 
    7300           13    172711.88       73.664    73.664001       36.752          120    -204182.5   -204173.22   -275718.91   0.94256837   0.70681339   0.29969265       73.664    63.794896       36.752   -228024.88   -308813.26 
    7400           13    172711.88       73.664    73.664001       36.752          120    -204182.5   -204173.22   -275718.91   0.94256837   0.70681339   0.29969265       73.664    63.794896       36.752   -228024.88   -308813.26 
    7500           13    172711.88       73.664    73.664001       36.752          120    -204182.5   -204173.22   -275718.91   0.94256837   0.70681339   0.29969265       73.664    63.794896       36.752   -228024.88   -308813.26 
    7600           13    172711.88       73.664    73.664001       36.752          120    -204182.5   -204173.22   -275718.91   0.94256837   0.70681339   0.29969265       73.664    63.794896       36.752   -228024.88   -308813.26 
    7700           13    172711.88       73.664    73.664001       36.752          120    -204182.5   -204173.22   -275718.91   0.94256837   0.70681339   0.29969265       73.664    63.794896       36.752   -228024.88   -308813.26 
    7800           13    172711.88       73.664    73.664001       36.752          120    -204182.5   -204173.22   -275718.91   0.94256837   0.70681339   0.29969265       73.664    63.794896       36.752   -228024.88   -308813.26 
    7900           13    172711.88       73.664    73.664001       36.752          120    -204182.5   -204173.22   -275718.91   0.94256837   0.70681339   0.29969265       73.664    63.794896       36.752   -228024.88   -308813.26 
    8000           13    172711.88       73.664    73.664001       36.752          120    -204182.5   -204173.22   -275718.91   0.94256837   0.70681339   0.29969265       73.664    63.794896       36.752   -228024.88   -308813.26 
    8100           13    172711.88       73.664    73.664001       36.752          120    -204182.5   -204173.22   -275718.91   0.94256837   0.70681339   0.29969265       73.664    63.794896       36.752   -228024.88   -308813.26 
    8200           13    172711.88       73.664    73.664001       36.752          120    -204182.5   -204173.22   -275718.91   0.94256837   0.70681339   0.29969265       73.664    63.794896       36.752   -228024.88   -308813.26 
    8300           13    172711.88       73.664    73.664001       36.752          120    -204182.5   -204173.22   -275718.91   0.94256837   0.70681339   0.29969265       73.664    63.794896       36.752   -228024.88   -308813.26 
    8400           13    172711.88       73.664    73.664001       36.752          120    -204182.5   -204173.22   -275718.91   0.94256837   0.70681339   0.29969265       73.664    63.794896       36.752   -228024.88   -308813.26 
    8500           13    172711.88       73.664    73.664001       36.752          120    -204182.5   -204173.22   -275718.91   0.94256837   0.70681339   0.29969265       73.664    63.794896       36.752   -228024.88   -308813.26 
    8600           13    172711.88       73.664    73.664001       36.752          120    -204182.5   -204173.22   -275718.91   0.94256837   0.70681339   0.29969265       73.664    63.794896       36.752   -228024.88   -308813.26 
    8700           13    172711.88       73.664    73.664001       36.752          120    -204182.5   -204173.22   -275718.91   0.94256837   0.70681339   0.29969265       73.664    63.794896       36.752   -228024.88   -308813.26 
    8800           13    172711.88       73.664    73.664001       36.752          120    -204182.5   -204173.22   -275718.91   0.94256837   0.70681339   0.29969265       73.664    63.794896       36.752   -228024.88   -308813.26 
    8900           13    172711.88       73.664    73.664001       36.752          120    -204182.5   -204173.22   -275718.91   0.94256837   0.70681339   0.29969265       73.664    63.794896       36.752   -228024.88   -308813.26 
    9000           13    172711.88       73.664    73.664001       36.752          120    -204182.5   -204173.22   -275718.91   0.94256837   0.70681339   0.29969265       73.664    63.794896       36.752   -228024.88   -308813.26 
    9100           13    172711.88       73.664    73.664001       36.752          120    -204182.5   -204173.22   -275718.91   0.94256837   0.70681339   0.29969265       73.664    63.794896       36.752   -228024.88   -308813.26 
    9200           13    172711.88       73.664    73.664001       36.752          120    -204182.5   -204173.22   -275718.91   0.94256837   0.70681339   0.29969265       73.664    63.794896       36.752   -228024.88   -308813.26 
    9300           13    172711.88       73.664    73.664001       36.752          120    -204182.5   -204173.22   -275718.91   0.94256837   0.70681339   0.29969265       73.664    63.794896       36.752   -228024.88   -308813.26 
    9400           13    172711.88       73.664    73.664001       36.752          120    -204182.5   -204173.22   -275718.91   0.94256837   0.70681339   0.29969265       73.664    63.794896       36.752   -228024.88   -308813.26 
    9500           13    172711.88       73.664    73.664001       36.752          120    -204182.5   -204173.22   -275718.91   0.94256837   0.70681339   0.29969265       73.664    63.794896       36.752   -228024.88   -308813.26 
    9600           13    172711.88       73.664    73.664001       36.752          120    -204182.5   -204173.22   -275718.91   0.94256837   0.70681339   0.29969265       73.664    63.794896       36.752   -228024.88   -308813.26 
    9700           13    172711.88       73.664    73.664001       36.752          120    -204182.5   -204173.22   -275718.91   0.94256837   0.70681339   0.29969265       73.664    63.794896       36.752   -228024.88   -308813.26 
    9800           13    172711.88       73.664    73.664001       36.752          120    -204182.5   -204173.22   -275718.91   0.94256837   0.70681339   0.29969265       73.664    63.794896       36.752   -228024.88   -308813.26 
    9900           13    172711.88       73.664    73.664001       36.752          120    -204182.5   -204173.22   -275718.91   0.94256837   0.70681339   0.29969265       73.664    63.794896       36.752   -228024.88   -308813.26 
   10000           13    172711.88       73.664    73.664001       36.752          120    -204182.5   -204173.22   -275718.91   0.94256837   0.70681339   0.29969265       73.664    63.794896       36.752   -228024.88   -308813.26 
   10100           13    172711.88       73.664    73.664001       36.752          120    -204182.5   -204173.22   -275718.91   0.94256837   0.70681339   0.29969265       73.664    63.794896       36.752   -228024.88   -308813.26 
   10200           13    172711.88       73.664    73.664001       36.752          120    -204182.5   -204173.22   -275718.91   0.94256837   0.70681339   0.29969265       73.664    63.794896       36.752   -228024.88   -308813.26 
   10300           13    172711.88       73.664    73.664001       36.752          120    -204182.5   -204173.22   -275718.91   0.94256837   0.70681339   0.29969265       73.664    63.794896       36.752   -228024.88   -308813.26 
   10400           13    172711.88       73.664    73.664001       36.752          120    -204182.5   -204173.22   -275718.91   0.94256837   0.70681339   0.29969265       73.664    63.794896       36.752   -228024.88   -308813.26 
   10500           13    172711.88       73.664    73.664001       36.752          120    -204182.5   -204173.22   -275718.91   0.94256837   0.70681339   0.29969265       73.664    63.794896       36.752   -228024.88   -308813.26 
   10600           13    172711.88       73.664    73.664001       36.752          120    -204182.5   -204173.22   -275718.91   0.94256837   0.70681339   0.29969265       73.664    63.794896       36.752   -228024.88   -308813.26 
   10700           13    172711.88       73.664    73.664001       36.752          120    -204182.5   -204173.22   -275718.91   0.94256837   0.70681339   0.29969265       73.664    63.794896       36.752   -228024.88   -308813.26 
   10800           13    172711.88       73.664    73.664001       36.752          120    -204182.5   -204173.22   -275718.91   0.94256837   0.70681339   0.29969265       73.664    63.794896       36.752   -228024.88   -308813.26 
   10900           13    172711.88       73.664    73.664001       36.752          120    -204182.5   -204173.22   -275718.91   0.94256837   0.70681339   0.29969265       73.664    63.794896       36.752   -228024.88   -308813.26 
   11000           13    172711.88       73.664    73.664001       36.752          120    -204182.5   -204173.22   -275718.91   0.94256837   0.70681339   0.29969265       73.664    63.794896       36.752   -228024.88   -308813.26 
   11100           13    172711.88       73.664    73.664001       36.752          120    -204182.5   -204173.22   -275718.91   0.94256837   0.70681339   0.29969265       73.664    63.794896       36.752   -228024.88   -308813.26 
   11200           13    172711.88       73.664    73.664001       36.752          120    -204182.5   -204173.22   -275718.91   0.94256837   0.70681339   0.29969265       73.664    63.794896       36.752   -228024.88   -308813.26 
   11300           13    172711.88       73.664    73.664001       36.752          120    -204182.5   -204173.22   -275718.91   0.94256837   0.70681339   0.29969265       73.664    63.794896       36.752   -228024.88   -308813.26 
   11400           13    172711.88       73.664    73.664001       36.752          120    -204182.5   -204173.22   -275718.91   0.94256837   0.70681339   0.29969265       73.664    63.794896       36.752   -228024.88   -308813.26 
   11500           13    172711.88       73.664    73.664001       36.752          120    -204182.5   -204173.22   -275718.91   0.94256837   0.70681339   0.29969265       73.664    63.794896       36.752   -228024.88   -308813.26 
   11600           13    172711.88       73.664    73.664001       36.752          120    -204182.5   -204173.22   -275718.91   0.94256837   0.70681339   0.29969265       73.664    63.794896       36.752   -228024.88   -308813.26 
   11700           13    172711.88       73.664    73.664001       36.752          120    -204182.5   -204173.22   -275718.91   0.94256837   0.70681339   0.29969265       73.664    63.794896       36.752   -228024.88   -308813.26 
   11800           13    172711.88       73.664    73.664001       36.752          120    -204182.5   -204173.22   -275718.91   0.94256837   0.70681339   0.29969265       73.664    63.794896       36.752   -228024.88   -308813.26 
   11900           13    172711.88       73.664    73.664001       36.752          120    -204182.5   -204173.22   -275718.91   0.94256837   0.70681339   0.29969265       73.664    63.794896       36.752   -228024.88   -308813.26 
   12000           13    172711.88       73.664    73.664001       36.752          120    -204182.5   -204173.22   -275718.91   0.94256837   0.70681339   0.29969265       73.664    63.794896       36.752   -228024.88   -308813.26 
   12100           13    172711.88       73.664    73.664001       36.752          120    -204182.5   -204173.22   -275718.91   0.94256837   0.70681339   0.29969265       73.664    63.794896       36.752   -228024.88   -308813.26 
   12200           13    172711.88       73.664    73.664001       36.752          120    -204182.5   -204173.22   -275718.91   0.94256837   0.70681339   0.29969265       73.664    63.794896       36.752   -228024.88   -308813.26 
   12300           13    172711.88       73.664    73.664001       36.752          120    -204182.5   -204173.22   -275718.91   0.94256837   0.70681339   0.29969265       73.664    63.794896       36.752   -228024.88   -308813.26 
   12400           13    172711.88       73.664    73.664001       36.752          120    -204182.5   -204173.22   -275718.91   0.94256837   0.70681339   0.29969265       73.664    63.794896       36.752   -228024.88   -308813.26 
   12500           13    172711.88       73.664    73.664001       36.752          120    -204182.5   -204173.22   -275718.91   0.94256837   0.70681339   0.29969265       73.664    63.794896       36.752   -228024.88   -308813.26 
   12600           13    172711.88       73.664    73.664001       36.752          120    -204182.5   -204173.22   -275718.91   0.94256837   0.70681339   0.29969265       73.664    63.794896       36.752   -228024.88   -308813.26 
   12700           13    172711.88       73.664    73.664001       36.752          120    -204182.5   -204173.22   -275718.91   0.94256837   0.70681339   0.29969265       73.664    63.794896       36.752   -228024.88   -308813.26 
   12800           13    172711.88       73.664    73.664001       36.752          120    -204182.5   -204173.22   -275718.91   0.94256837   0.70681339   0.29969265       73.664    63.794896       36.752   -228024.88   -308813.26 
   12900           13    172711.88       73.664    73.664001       36.752          120    -204182.5   -204173.22   -275718.91   0.94256837   0.70681339   0.29969265       73.664    63.794896       36.752   -228024.88   -308813.26 
   13000           13    172711.88       73.664    73.664001       36.752          120    -204182.5   -204173.22   -275718.91   0.94256837   0.70681339   0.29969265       73.664    63.794896       36.752   -228024.88   -308813.26 
   13100           13    172711.88       73.664    73.664001       36.752          120    -204182.5   -204173.22   -275718.91   0.94256837   0.70681339   0.29969265       73.664    63.794896       36.752   -228024.88   -308813.26 
   13200           13    172711.88       73.664    73.664001       36.752          120    -204182.5   -204173.22   -275718.91   0.94256837   0.70681339   0.29969265       73.664    63.794896       36.752   -228024.88   -308813.26 
   13300           13    172711.88       73.664    73.664001       36.752          120    -204182.5   -204173.22   -275718.91   0.94256837   0.70681339   0.29969265       73.664    63.794896       36.752   -228024.88   -308813.26 
   13400           13    172711.88       73.664    73.664001       36.752          120    -204182.5   -204173.22   -275718.91   0.94256837   0.70681339   0.29969265       73.664    63.794896       36.752   -228024.88   -308813.26 
   13500           13    172711.88       73.664    73.664001       36.752          120    -204182.5   -204173.22   -275718.91   0.94256837   0.70681339   0.29969265       73.664    63.794896       36.752   -228024.88   -308813.26 
   13600           13    172711.88       73.664    73.664001       36.752          120    -204182.5   -204173.22   -275718.91   0.94256837   0.70681339   0.29969265       73.664    63.794896       36.752   -228024.88   -308813.26 
   13700           13    172711.88       73.664    73.664001       36.752          120    -204182.5   -204173.22   -275718.91   0.94256837   0.70681339   0.29969265       73.664    63.794896       36.752   -228024.88   -308813.26 
   13800           13    172711.88       73.664    73.664001       36.752          120    -204182.5   -204173.22   -275718.91   0.94256837   0.70681339   0.29969265       73.664    63.794896       36.752   -228024.88   -308813.26 
   13900           13    172711.88       73.664    73.664001       36.752          120    -204182.5   -204173.22   -275718.91   0.94256837   0.70681339   0.29969265       73.664    63.794896       36.752   -228024.88   -308813.26 
   14000           13    172711.88       73.664    73.664001       36.752          120    -204182.5   -204173.22   -275718.91   0.94256837   0.70681339   0.29969265       73.664    63.794896       36.752   -228024.88   -308813.26 
   14100           13    172711.88       73.664    73.664001       36.752          120    -204182.5   -204173.22   -275718.91   0.94256837   0.70681339   0.29969265       73.664    63.794896       36.752   -228024.88   -308813.26 
   14200           13    172711.88       73.664    73.664001       36.752          120    -204182.5   -204173.22   -275718.91   0.94256837   0.70681339   0.29969265       73.664    63.794896       36.752   -228024.88   -308813.26 
   14300           13    172711.88       73.664    73.664001       36.752          120    -204182.5   -204173.22   -275718.91   0.94256837   0.70681339   0.29969265       73.664    63.794896       36.752   -228024.88   -308813.26 
   14400           13    172711.88       73.664    73.664001       36.752          120    -204182.5   -204173.22   -275718.91   0.94256837   0.70681339   0.29969265       73.664    63.794896       36.752   -228024.88   -308813.26 
   14500           13    172711.88       73.664    73.664001       36.752          120    -204182.5   -204173.22   -275718.91   0.94256837   0.70681339   0.29969265       73.664    63.794896       36.752   -228024.88   -308813.26 
   14600           13    172711.88       73.664    73.664001       36.752          120    -204182.5   -204173.22   -275718.91   0.94256837   0.70681339   0.29969265       73.664    63.794896       36.752   -228024.88   -308813.26 
   14700           13    172711.88       73.664    73.664001       36.752          120    -204182.5   -204173.22   -275718.91   0.94256837   0.70681339   0.29969265       73.664    63.794896       36.752   -228024.88   -308813.26 
   14800           13    172711.88       73.664    73.664001       36.752          120    -204182.5   -204173.22   -275718.91   0.94256837   0.70681339   0.29969265       73.664    63.794896       36.752   -228024.88   -308813.26 
   14900           13    172711.88       73.664    73.664001       36.752          120    -204182.5   -204173.22   -275718.91   0.94256837   0.70681339   0.29969265       73.664    63.794896       36.752   -228024.88   -308813.26 
   15000           13    172711.88       73.664    73.664001       36.752          120    -204182.5   -204173.22   -275718.91   0.94256837   0.70681339   0.29969265       73.664    63.794896       36.752   -228024.88   -308813.26 
   15100           13    172711.88       73.664    73.664001       36.752          120    -204182.5   -204173.22   -275718.91   0.94256837   0.70681339   0.29969265       73.664    63.794896       36.752   -228024.88   -308813.26 
   15200           13    172711.88       73.664    73.664001       36.752          120    -204182.5   -204173.22   -275718.91   0.94256837   0.70681339   0.29969265       73.664    63.794896       36.752   -228024.88   -308813.26 
   15300           13    172711.88       73.664    73.664001       36.752          120    -204182.5   -204173.22   -275718.91   0.94256837   0.70681339   0.29969265       73.664    63.794896       36.752   -228024.88   -308813.26 
   15400           13    172711.88       73.664    73.664001       36.752          120    -204182.5   -204173.22   -275718.91   0.94256837   0.70681339   0.29969265       73.664    63.794896       36.752   -228024.88   -308813.26 
   15500           13    172711.88       73.664    73.664001       36.752          120    -204182.5   -204173.22   -275718.91   0.94256837   0.70681339   0.29969265       73.664    63.794896       36.752   -228024.88   -308813.26 
   15600           13    172711.88       73.664    73.664001       36.752          120    -204182.5   -204173.22   -275718.91   0.94256837   0.70681339   0.29969265       73.664    63.794896       36.752   -228024.88   -308813.26 
   15700           13    172711.88       73.664    73.664001       36.752          120    -204182.5   -204173.22   -275718.91   0.94256837   0.70681339   0.29969265       73.664    63.794896       36.752   -228024.88   -308813.26 
   15800           13    172711.88       73.664    73.664001       36.752          120    -204182.5   -204173.22   -275718.91   0.94256837   0.70681339   0.29969265       73.664    63.794896       36.752   -228024.88   -308813.26 
   15900           13    172711.88       73.664    73.664001       36.752          120    -204182.5   -204173.22   -275718.91   0.94256837   0.70681339   0.29969265       73.664    63.794896       36.752   -228024.88   -308813.26 
   16000           13    172711.88       73.664    73.664001       36.752          120    -204182.5   -204173.22   -275718.91   0.94256837   0.70681339   0.29969265       73.664    63.794896       36.752   -228024.88   -308813.26 
   16100           13    172711.88       73.664    73.664001       36.752          120    -204182.5   -204173.22   -275718.91   0.94256837   0.70681339   0.29969265       73.664    63.794896       36.752   -228024.88   -308813.26 
   16200           13    172711.88       73.664    73.664001       36.752          120    -204182.5   -204173.22   -275718.91   0.94256837   0.70681339   0.29969265       73.664    63.794896       36.752   -228024.88   -308813.26 
   16300           13    172711.88       73.664    73.664001       36.752          120    -204182.5   -204173.22   -275718.91   0.94256837   0.70681339   0.29969265       73.664    63.794896       36.752   -228024.88   -308813.26 
   16400           13    172711.88       73.664    73.664001       36.752          120    -204182.5   -204173.22   -275718.91   0.94256837   0.70681339   0.29969265       73.664    63.794896       36.752   -228024.88   -308813.26 
   16500           13    172711.88       73.664    73.664001       36.752          120    -204182.5   -204173.22   -275718.91   0.94256837   0.70681339   0.29969265       73.664    63.794896       36.752   -228024.88   -308813.26 
   16600           13    172711.88       73.664    73.664001       36.752          120    -204182.5   -204173.22   -275718.91   0.94256837   0.70681339   0.29969265       73.664    63.794896       36.752   -228024.88   -308813.26 
   16700           13    172711.88       73.664    73.664001       36.752          120    -204182.5   -204173.22   -275718.91   0.94256837   0.70681339   0.29969265       73.664    63.794896       36.752   -228024.88   -308813.26 
   16800           13    172711.88       73.664    73.664001       36.752          120    -204182.5   -204173.22   -275718.91   0.94256837   0.70681339   0.29969265       73.664    63.794896       36.752   -228024.88   -308813.26 
   16900           13    172711.88       73.664    73.664001       36.752          120    -204182.5   -204173.22   -275718.91   0.94256837   0.70681339   0.29969265       73.664    63.794896       36.752   -228024.88   -308813.26 
   17000           13    172711.88       73.664    73.664001       36.752          120    -204182.5   -204173.22   -275718.91   0.94256837   0.70681339   0.29969265       73.664    63.794896       36.752   -228024.88   -308813.26 
   17100           13    172711.88       73.664    73.664001       36.752          120    -204182.5   -204173.22   -275718.91   0.94256837   0.70681339   0.29969265       73.664    63.794896       36.752   -228024.88   -308813.26 
   17200           13    172711.88       73.664    73.664001       36.752          120    -204182.5   -204173.22   -275718.91   0.94256837   0.70681339   0.29969265       73.664    63.794896       36.752   -228024.88   -308813.26 
   17300           13    172711.88       73.664    73.664001       36.752          120    -204182.5   -204173.22   -275718.91   0.94256837   0.70681339   0.29969265       73.664    63.794896       36.752   -228024.88   -308813.26 
   17400           13    172711.88       73.664    73.664001       36.752          120    -204182.5   -204173.22   -275718.91   0.94256837   0.70681339   0.29969265       73.664    63.794896       36.752   -228024.88   -308813.26 
   17500           13    172711.88       73.664    73.664001       36.752          120    -204182.5   -204173.22   -275718.91   0.94256837   0.70681339   0.29969265       73.664    63.794896       36.752   -228024.88   -308813.26 
   17600           13    172711.88       73.664    73.664001       36.752          120    -204182.5   -204173.22   -275718.91   0.94256837   0.70681339   0.29969265       73.664    63.794896       36.752   -228024.88   -308813.26 
   17700           13    172711.88       73.664    73.664001       36.752          120    -204182.5   -204173.22   -275718.91   0.94256837   0.70681339   0.29969265       73.664    63.794896       36.752   -228024.88   -308813.26 
   17800           13    172711.88       73.664    73.664001       36.752          120    -204182.5   -204173.22   -275718.91   0.94256837   0.70681339   0.29969265       73.664    63.794896       36.752   -228024.88   -308813.26 
   17900           13    172711.88       73.664    73.664001       36.752          120    -204182.5   -204173.22   -275718.91   0.94256837   0.70681339   0.29969265       73.664    63.794896       36.752   -228024.88   -308813.26 
   18000           13    172711.88       73.664    73.664001       36.752          120    -204182.5   -204173.22   -275718.91   0.94256837   0.70681339   0.29969265       73.664    63.794896       36.752   -228024.88   -308813.26 
   18100           13    172711.88       73.664    73.664001       36.752          120    -204182.5   -204173.22   -275718.91   0.94256837   0.70681339   0.29969265       73.664    63.794896       36.752   -228024.88   -308813.26 
   18200           13    172711.88       73.664    73.664001       36.752          120    -204182.5   -204173.22   -275718.91   0.94256837   0.70681339   0.29969265       73.664    63.794896       36.752   -228024.88   -308813.26 
   18300           13    172711.88       73.664    73.664001       36.752          120    -204182.5   -204173.22   -275718.91   0.94256837   0.70681339   0.29969265       73.664    63.794896       36.752   -228024.88   -308813.26 
   18400           13    172711.88       73.664    73.664001       36.752          120    -204182.5   -204173.22   -275718.91   0.94256837   0.70681339   0.29969265       73.664    63.794896       36.752   -228024.88   -308813.26 
   18500           13    172711.88       73.664    73.664001       36.752          120    -204182.5   -204173.22   -275718.91   0.94256837   0.70681339   0.29969265       73.664    63.794896       36.752   -228024.88   -308813.26 
   18600           13    172711.88       73.664    73.664001       36.752          120    -204182.5   -204173.22   -275718.91   0.94256837   0.70681339   0.29969265       73.664    63.794896       36.752   -228024.88   -308813.26 
   18700           13    172711.88       73.664    73.664001       36.752          120    -204182.5   -204173.22   -275718.91   0.94256837   0.70681339   0.29969265       73.664    63.794896       36.752   -228024.88   -308813.26 
   18800           13    172711.88       73.664    73.664001       36.752          120    -204182.5   -204173.22   -275718.91   0.94256837   0.70681339   0.29969265       73.664    63.794896       36.752   -228024.88   -308813.26 
   18900           13    172711.88       73.664    73.664001       36.752          120    -204182.5   -204173.22   -275718.91   0.9425   22600           13    172711.88       73.664    73.664001       36.752          120    -204182.5   -204173.22   -275718.91   0.94256837   0.70681339   0.29969265       73.664    63.794896       36.752   -228024.88   -308813.26 
   22700           13    172711.88       73.664    73.664001       36.752          120    -204182.5   -204173.22   -275718.91   0.94256837   0.70681339   0.29969265       73.664    63.794896       36.752   -228024.88   -308813.26 
   22800           13    172711.88       73.664    73.664001       36.752          120    -204182.5   -204173.22   -275718.91   0.94256837   0.70681339   0.29969265       73.664    63.794896       36.752   -228024.88   -308813.26 
   22900           13    172711.88       73.664    73.664001       36.752          120    -204182.5   -204173.22   -275718.91   0.94256837   0.70681339   0.29969265       73.664    63.794896       36.752   -228024.88   -308813.26 
   23000           13    172711.88       73.664    73.664001       36.752          120    -204182.5   -204173.22   -275718.91   0.94256837   0.70681339   0.29969265       73.664    63.794896       36.752   -228024.88   -308813.26 
   23100           13    172711.88       73.664    73.664001       36.752          120    -204182.5   -204173.22   -275718.91   0.94256837   0.70681339   0.29969265       73.664    63.794896       36.752   -228024.88   -308813.26 
   23200           13    172711.88       73.664    73.664001       36.752          120    -204182.5   -204173.22   -275718.91   0.94256837   0.70681339   0.29969265       73.664    63.794896       36.752   -228024.88   -308813.26 
   23300           13    172711.88       73.664    73.664001       36.752          120    -204182.5   -204173.22   -275718.91   0.94256837   0.70681339   0.29969265       73.664    63.794896       36.752   -228024.88   -308813.26 
   23400           13    172711.88       73.664    73.664001       36.752          120    -204182.5   -204173.22   -275718.91   0.94256837   0.70681339   0.29969265       73.664    63.794896       36.752   -228024.88   -308813.26 
   23500           13    172711.88       73.664    73.664001       36.752          120    -204182.5   -204173.22   -275718.91   0.94256837   0.70681339   0.29969265       73.664    63.794896       36.752   -228024.88   -308813.26 
   23600           13    172711.88       73.664    73.664001       36.752          120    -204182.5   -204173.22   -275718.91   0.94256837   0.70681339   0.29969265       73.664    63.794896       36.752   -228024.88   -308813.26 
   23700           13    172711.88       73.664    73.664001       36.752          120    -204182.5   -204173.22   -275718.91   0.94256837   0.70681339   0.29969265       73.664    63.794896       36.752   -228024.88   -308813.26 
   23800           13    172711.88       73.664    73.664001       36.752          120    -204182.5   -204173.22   -275718.91   0.94256837   0.70681339   0.29969265       73.664    63.794896       36.752   -228024.88   -308813.26 
   23900           13    172711.88       73.664    73.664001       36.752          120    -204182.5   -204173.22   -275718.91   0.94256837   0.70681339   0.29969265       73.664    63.794896       36.752   -228024.88   -308813.26 
   24000           13    172711.88       73.664    73.664001       36.752          120    -204182.5   -204173.22   -275718.91   0.94256837   0.70681339   0.29969265       73.664    63.794896       36.752   -228024.88   -308813.26 
   24100           13    172711.88       73.664    73.664001       36.752          120    -204182.5   -204173.22   -275718.91   0.94256837   0.70681339   0.29969265       73.664    63.794896       36.752   -228024.88   -308813.26 
   24200           13    172711.88       73.664    73.664001       36.752          120    -204182.5   -204173.22   -275718.91   0.94256837   0.70681339   0.29969265       73.664    63.794896       36.752   -228024.88   -308813.26 
   24300           13    172711.88       73.664    73.664001       36.752          120    -204182.5   -204173.22   -275718.91   0.94256837   0.70681339   0.29969265       73.664    63.794896       36.752   -228024.88   -308813.26 
   24400           13    172711.88       73.664    73.664001       36.752          120    -204182.5   -204173.22   -275718.91   0.94256837   0.70681339   0.29969265       73.664    63.794896       36.752   -228024.88   -308813.26 
   24500           13    172711.88       73.664    73.664001       36.752          120    -204182.5   -204173.22   -275718.91   0.94256837   0.70681339   0.29969265       73.664    63.794896       36.752   -228024.88   -308813.26 
   24600           13    172711.88       73.664    73.664001       36.752          120    -204182.5   -204173.22   -275718.91   0.94256837   0.70681339   0.29969265       73.664    63.794896       36.752   -228024.88   -308813.26 
   24700           13    172711.88       73.664    73.664001       36.752          120    -204182.5   -204173.22   -275718.91   0.94256837   0.70681339   0.29969265       73.664    63.794896       36.752   -228024.88   -308813.26 
   24800           13    172711.88       73.664    73.664001       36.752          120    -204182.5   -204173.22   -275718.91   0.94256837   0.70681339   0.29969265       73.664    63.794896       36.752   -228024.88   -308813.26 
   24900           13    172711.88       73.664    73.664001       36.752          120    -204182.5   -204173.22   -275718.91   0.94256837   0.70681339   0.29969265       73.664    63.794896       36.752   -228024.88   -308813.26 
   25000           13    172711.88       73.664    73.664001       36.752          120    -204182.5   -204173.22   -275718.91   0.94256837   0.70681339   0.29969265       73.664    63.794896       36.752   -228024.88   -308813.26 
   25100           13    172711.88       73.664    73.664001       36.752          120    -204182.5   -204173.22   -275718.91   0.94256837   0.70681339   0.29969265       73.664    63.794896       36.752   -228024.88   -308813.26 
   25200           13    172711.88       73.664    73.664001       36.752          120    -204182.5   -204173.22   -275718.91   0.94256837   0.70681339   0.29969265       73.664    63.794896       36.752   -228024.88   -308813.26 
   25300           13    172711.88       73.664    73.664001       36.752          120    -204182.5   -204173.22   -275718.91   0.94256837   0.70681339   0.29969265       73.664    63.794896       36.752   -228024.88   -308813.26 
   25400           13    172711.88       73.664    73.664001       36.752          120    -204182.5   -204173.22   -275718.91   0.94256837   0.70681339   0.29969265       73.664    63.794896       36.752   -228024.88   -308813.26 
   25500           13    172711.88       73.664    73.664001       36.752          120    -204182.5   -204173.22   -275718.91   0.94256837   0.70681339   0.29969265       73.664    63.794896       36.752   -228024.88   -308813.26 
   25600           13    172711.88       73.664    73.664001       36.752          120    -204182.5   -204173.22   -275718.91   0.94256837   0.70681339   0.29969265       73.664    63.794896       36.752   -228024.88   -308813.26 
   25700           13    172711.88       73.664    73.664001       36.752          120    -204182.5   -204173.22   -275718.91   0.94256837   0.70681339   0.29969265       73.664    63.794896       36.752   -228024.88   -308813.26 
   25800           13    172711.88       73.664    73.664001       36.752          120    -204182.5   -204173.22   -275718.91   0.94256837   0.70681339   0.29969265       73.664    63.794896       36.752   -228024.88   -308813.26 
   25900           13    172711.88       73.664    73.664001       36.752          120    -204182.5   -204173.22   -275718.91   0.94256837   0.70681339   0.29969265       73.664    63.794896       36.752   -228024.88   -308813.26 
   26000           13    172711.88       73.664    73.664001       36.752          120    -204182.5   -204173.22   -275718.91   0.94256837   0.70681339   0.29969265       73.664    63.794896       36.752   -228024.88   -308813.26 
   26100           13    172711.88       73.664    73.664001       36.752          120    -204182.5   -204173.22   -275718.91   0.94256837   0.70681339   0.29969265       73.664    63.794896       36.752   -228024.88   -308813.26 
   26200           13    172711.88       73.664    73.664001       36.752          120    -204182.5   -204173.22   -275718.91   0.94256837   0.70681339   0.29969265       73.664    63.794896       36.752   -228024.88   -308813.26 
   26300           13    172711.88       73.664    73.664001       36.752          120    -204182.5   -204173.22   -275718.91   0.94256837   0.70681339   0.29969265       73.664    63.794896       36.752   -228024.88   -308813.26 
   26400           13    172711.88       73.664    73.664001       36.752          120    -204182.5   -204173.22   -275718.91   0.94256837   0.70681339   0.29969265       73.664    63.794896       36.752   -228024.88   -308813.26 
   26500           13    172711.88       73.664    73.664001       36.752          120    -204182.5   -204173.22   -275718.91   0.94256837   0.70681339   0.29969265       73.664    63.794896       36.752   -228024.88   -308813.26 
   26600           13    172711.88       73.664    73.664001       36.752          120    -204182.5   -204173.22   -275718.91   0.94256837   0.70681339   0.29969265       73.664    63.794896       36.752   -228024.88   -308813.26 
   26700           13    172711.88       73.664    73.664001       36.752          120    -204182.5   -204173.22   -275718.91   0.94256837   0.70681339   0.29969265       73.664    63.794896       36.752   -228024.88   -308813.26 
   26800           13    172711.88       73.664    73.664001       36.752          120    -204182.5   -204173.22   -275718.91   0.94256837   0.70681339   0.29969265       73.664    63.794896       36.752   -228024.88   -308813.26 
   26900           13    172711.88       73.664    73.664001       36.752          120    -204182.5   -204173.22   -275718.91   0.94256837   0.70681339   0.29969265       73.664    63.794896       36.752   -228024.88   -308813.26 
   27000           13    172711.88       73.664    73.664001       36.752          120    -204182.5   -204173.22   -275718.91   0.94256837   0.70681339   0.29969265       73.664    63.794896       36.752   -228024.88   -308813.26 
   27100           13    172711.88       73.664    73.664001       36.752          120    -204182.5   -204173.22   -275718.91   0.94256837   0.70681339   0.29969265       73.664    63.794896       36.752   -228024.88   -308813.26 
   27200           13    172711.88       73.664    73.664001       36.752          120    -204182.5   -204173.22   -275718.91   0.94256837   0.70681339   0.29969265       73.664    63.794896       36.752   -228024.88   -308813.26 
   27300           13    172711.88       73.664    73.664001       36.752          120    -204182.5   -204173.22   -275718.91   0.94256837   0.70681339   0.29969265       73.664    63.794896       36.752   -228024.88   -308813.26 
   27400           13    172711.88       73.664    73.664001       36.752          120    -204182.5   -204173.22   -275718.91   0.94256837   0.70681339   0.29969265       73.664    63.794896       36.752   -228024.88   -308813.26 
   27500           13    172711.88       73.664    73.664001       36.752          120    -204182.5   -204173.22   -275718.91   0.94256837   0.70681339   0.29969265       73.664    63.794896       36.752   -228024.88   -308813.26 
   27600           13    172711.88       73.664    73.664001       36.752          120    -204182.5   -204173.22   -275718.91   0.94256837   0.70681339   0.29969265       73.664    63.794896       36.752   -228024.88   -308813.26 
   27700           13    172711.88       73.664    73.664001       36.752          120    -204182.5   -204173.22   -275718.91   0.94256837   0.70681339   0.29969265       73.664    63.794896       36.752   -228024.88   -308813.26 
   27800           13    172711.88       73.664    73.664001       36.752          120    -204182.5   -204173.22   -275718.91   0.94256837   0.70681339   0.29969265       73.664    63.794896       36.752   -228024.88   -308813.26 
   27900           13    172711.88       73.664    73.664001       36.752          120    -204182.5   -204173.22   -275718.91   0.94256837   0.70681339   0.29969265       73.664    63.794896       36.752   -228024.88   -308813.26 
   28000           13    172711.88       73.664    73.664001       36.752          120    -204182.5   -204173.22   -275718.91   0.94256837   0.70681339   0.29969265       73.664    63.794896       36.752   -228024.88   -308813.26 
   28100           13    172711.88       73.664    73.664001       36.752          120    -204182.5   -204173.22   -275718.91   0.94256837   0.70681339   0.29969265       73.664    63.794896       36.752   -228024.88   -308813.26 
   28200           13    172711.88       73.664    73.664001       36.752          120    -204182.5   -204173.22   -275718.91   0.94256837   0.70681339   0.29969265       73.664    63.794896       36.752   -228024.88   -308813.26 
   28300           13    172711.88       73.664    73.664001       36.752          120    -204182.5   -204173.22   -275718.91   0.94256837   0.70681339   0.29969265       73.664    63.794896       36.752   -228024.88   -308813.26 
   28400           13    172711.88       73.664    73.664001       36.752          120    -204182.5   -204173.22   -275718.91   0.94256837   0.70681339   0.29969265       73.664    63.794896       36.752   -228024.88   -308813.26 
   28500           13    172711.88       73.664    73.664001       36.752          120    -204182.5   -204173.22   -275718.91   0.94256837   0.70681339   0.29969265       73.664    63.794896       36.752   -228024.88   -308813.26 
   28600           13    172711.88       73.664    73.664001       36.752          120    -204182.5   -204173.22   -275718.91   0.94256837   0.70681339   0.29969265       73.664    63.794896       36.752   -228024.88   -308813.26 
   28700           13    172711.88       73.664    73.664001       36.752          120    -204182.5   -204173.22   -275718.91   0.94256837   0.70681339   0.29969265       73.664    63.794896       36.752   -228024.88   -308813.26 
   28800           13    172711.88       73.664    73.664001       36.752          120    -204182.5   -204173.22   -275718.91   0.94256837   0.70681339   0.29969265       73.664    63.794896       36.752   -228024.88   -308813.26 
   28900           13    172711.88       73.664    73.664001       36.752          120    -204182.5   -204173.22   -275718.91   0.94256837   0.70681339   0.29969265       73.664    63.794896       36.752   -228024.88   -308813.26 
   29000           13    172711.88       73.664    73.664001       36.752          120    -204182.5   -204173.22   -275718.91   0.94256837   0.70681339   0.29969265       73.664    63.794896       36.752   -228024.88   -308813.26 
   29100           13    172711.88       73.664    73.664001       36.752          120    -204182.5   -204173.22   -275718.91   0.94256837   0.70681339   0.29969265       73.664    63.794896       36.752   -228024.88   -308813.26 
   29200           13    172711.88       73.664    73.664001       36.752          120    -204182.5   -204173.22   -275718.91   0.94256837   0.70681339   0.29969265       73.664    63.794896       36.752   -228024.88   -308813.26 
   29300           13    172711.88       73.664    73.664001       36.752          120    -204182.5   -204173.22   -275718.91   0.94256837   0.70681339   0.29969265       73.664    63.794896       36.752   -228024.88   -308813.26 
   29400           13    172711.88       73.664    73.664001       36.752          120    -204182.5   -204173.22   -275718.91   0.94256837   0.70681339   0.29969265       73.664    63.794896       36.752   -228024.88   -308813.26 
   29500           13    172711.88       73.664    73.664001       36.752          120    -204182.5   -204173.22   -275718.91   0.94256837   0.70681339   0.29969265       73.664    63.794896       36.752   -228024.88   -308813.26 
   29600           13    172711.88       73.664    73.664001       36.752          120    -204182.5   -204173.22   -275718.91   0.94256837   0.70681339   0.29969265       73.664    63.794896       36.752   -228024.   29600           13    172711.88       73.664    73.664001       36.752          120    -204182.5   -204173.22   -275718.91   0.94256837   0.70681339   0.29969265       73.664    63.794896       36.752   -228024.88   -308813.26 
   29700           13    172711.88       73.664    73.664001       36.752          120    -204182.5   -204173.22   -275718.91   0.94256837   0.70681339   0.29969265       73.664    63.794896       36.752   -228024.88   -308813.26 
   29800           13    172711.88       73.664    73.664001       36.752          120    -204182.5   -204173.22   -275718.91   0.94256837   0.70681339   0.29969265       73.664    63.794896       36.752   -228024.88   -308813.26 
   29900           13    172711.88       73.664    73.664001       36.752          120    -204182.5   -204173.22   -275718.91   0.94256837   0.70681339   0.29969265       73.664    63.794896       36.752   -228024.88   -308813.26 
   30000           13    172711.88       73.664    73.664001       36.752          120    -204182.5   -204173.22   -275718.91   0.94256837   0.70681339   0.29969265       73.664    63.794896       36.752   -228024.88   -308813.26 
   30100           13    172711.88       73.664    73.664001       36.752          120    -204182.5   -204173.22   -275718.91   0.94256837   0.70681339   0.29969265       73.664    63.794896       36.752   -228024.88   -308813.26 
   30200           13    172711.88       73.664    73.664001       36.752          120    -204182.5   -204173.22   -275718.91   0.94256837   0.70681339   0.29969265       73.664    63.794896       36.752   -228024.88   -308813.26 
   30300           13    172711.88       73.664    73.664001       36.752          120    -204182.5   -204173.22   -275718.91   0.94256837   0.70681339   0.29969265       73.664    63.794896       36.752   -228024.88   -308813.26 
   30400           13    172711.88       73.664    73.664001       36.752          120    -204182.5   -204173.22   -275718.91   0.94256837   0.70681339   0.29969265       73.664    63.794896       36.752   -228024.88   -308813.26 
   30500           13    172711.88       73.664    73.664001       36.752          120    -204182.5   -204173.22   -275718.91   0.94256837   0.70681339   0.29969265       73.664    63.794896       36.752   -228024.88   -308813.26 
   30600           13    172711.88       73.664    73.664001       36.752          120    -204182.5   -204173.22   -275718.91   0.94256837   0.70681339   0.29969265       73.664    63.794896       36.752   -228024.88   -308813.26 
   30700           13    172711.88       73.664    73.664001       36.752          120    -204182.5   -204173.22   -275718.91   0.94256837   0.70681339   0.29969265       73.664    63.794896       36.752   -228024.88   -308813.26 
   30800           13    172711.88       73.664    73.664001       36.752          120    -204182.5   -204173.22   -275718.91   0.94256837   0.70681339   0.29969265       73.664    63.794896       36.752   -228024.88   -308813.26 
   30900           13    172711.88       73.664    73.664001       36.752          120    -204182.5   -204173.22   -275718.91   0.94256837   0.70681339   0.29969265       73.664    63.794896       36.752   -228024.88   -308813.26 
   31000           13    172711.88       73.664    73.664001       36.752          120    -204182.5   -204173.22   -275718.91   0.94256837   0.70681339   0.29969265       73.664    63.794896       36.752   -228024.88   -308813.26 
   31100           13    172711.88       73.664    73.664001       36.752          120    -204182.5   -204173.22   -275718.91   0.94256837   0.70681339   0.29969265       73.664    63.794896       36.752   -228024.88   -308813.26 
   31200           13    172711.88       73.664    73.664001       36.752          120    -204182.5   -204173.22   -275718.91   0.94256837   0.70681339   0.29969265       73.664    63.794896       36.752   -228024.88   -308813.26 
   31300           13    172711.88       73.664    73.664001       36.752          120    -204182.5   -204173.22   -275718.91   0.94256837   0.70681339   0.29969265       73.664    63.794896       36.752   -228024.88   -308813.26 
   31400           13    172711.88       73.664    73.664001       36.752          120    -204182.5   -204173.22   -275718.91   0.94256837   0.70681339   0.29969265       73.664    63.794896       36.752   -228024.88   -308813.26 
   31500           13    172711.88       73.664    73.664001       36.752          120    -204182.5   -204173.22   -275718.91   0.94256837   0.70681339   0.29969265       73.664    63.794896       36.752   -228024.88   -308813.26 
   31600           13    172711.88       73.664    73.664001       36.752          120    -204182.5   -204173.22   -275718.91   0.94256837   0.70681339   0.29969265       73.664    63.794896       36.752   -228024.88   -308813.26 
   31700           13    172711.88       73.664    73.664001       36.752          120    -204182.5   -204173.22   -275718.91   0.94256837   0.70681339   0.29969265       73.664    63.794896       36.752   -228024.88   -308813.26 
   31800           13    172711.88       73.664    73.664001       36.752          120    -204182.5   -204173.22   -275718.91   0.94256837   0.70681339   0.29969265       73.664    63.794896       36.752   -228024.88   -308813.26 
   31900           13    172711.88       73.664    73.664001       36.752          120    -204182.5   -204173.22   -275718.91   0.94256837   0.70681339   0.29969265       73.664    63.794896       36.752   -228024.88   -308813.26 
   32000           13    172711.88       73.664    73.664001       36.752          120    -204182.5   -204173.22   -275718.91   0.94256837   0.70681339   0.29969265       73.664    63.794896       36.752   -228024.88   -308813.26 
   32100           13    172711.88       73.664    73.664001       36.752          120    -204182.5   -204173.22   -275718.91   0.94256837   0.70681339   0.29969265       73.664    63.794896       36.752   -228024.88   -308813.26 
   32200           13    172711.88       73.664    73.664001       36.752          120    -204182.5   -204173.22   -275718.91   0.94256837   0.70681339   0.29969265       73.664    63.794896       36.752   -228024.88   -308813.26 
   32300           13    172711.88       73.664    73.664001       36.752          120    -204182.5   -204173.22   -275718.91   0.94256837   0.70681339   0.29969265       73.664    63.794896       36.752   -228024.88   -308813.26 
   32400           13    172711.88       73.664    73.664001       36.752          120    -204182.5   -204173.22   -275718.91   0.94256837   0.70681339   0.29969265       73.664    63.794896       36.752   -228024.88   -308813.26 
   32500           13    172711.88       73.664    73.664001       36.752          120    -204182.5   -204173.22   -275718.91   0.94256837   0.70681339   0.29969265       73.664    63.794896       36.752   -228024.88   -308813.26 
   32600           13    172711.88       73.664    73.664001       36.752          120    -204182.5   -204173.22   -275718.91   0.94256837   0.70681339   0.29969265       73.664    63.794896       36.752   -228024.88   -308813.26 
   32700           13    172711.88       73.664    73.664001       36.752          120    -204182.5   -204173.22   -275718.91   0.94256837   0.70681339   0.29969265       73.664    63.794896       36.752   -228024.88   -308813.26 
   32800           13    172711.88       73.664    73.664001       36.752          120    -204182.5   -204173.22   -275718.91   0.94256837   0.70681339   0.29969265       73.664    63.794896       36.752   -228024.88   -308813.26 
   32900           13    172711.88       73.664    73.664001       36.752          120    -204182.5   -204173.22   -275718.91   0.94256837   0.70681339   0.29969265       73.664    63.794896       36.752   -228024.88   -308813.26 
   33000           13    172711.88       73.664    73.664001       36.752          120    -204182.5   -204173.22   -275718.91   0.94256837   0.70681339   0.29969265       73.664    63.794896       36.752   -228024.88   -308813.26 
   33100           13    172711.88       73.664    73.664001       36.752          120    -204182.5   -204173.22   -275718.91   0.94256837   0.70681339   0.29969265       73.664    63.794896       36.752   -228024.88   -308813.26 
   33200           13    172711.88       73.664    73.664001       36.752          120    -204182.5   -204173.22   -275718.91   0.94256837   0.70681339   0.29969265       73.664    63.794896       36.752   -228024.88   -308813.26 
   33300           13    172711.88       73.664    73.664001       36.752          120    -204182.5   -204173.22   -275718.91   0.94256837   0.70681339   0.29969265       73.664    63.794896       36.752   -228024.88   -308813.26 
   33400           13    172711.88       73.664    73.664001       36.752          120    -204182.5   -204173.22   -275718.91   0.94256837   0.70681339   0.29969265       73.664    63.794896       36.752   -228024.88   -308813.26 
   33500           13    172711.88       73.664    73.664001       36.752          120    -204182.5   -204173.22   -275718.91   0.94256837   0.70681339   0.29969265       73.664    63.794896       36.752   -228024.88   -308813.26 
   33600           13    172711.88       73.664    73.664001       36.752          120    -204182.5   -204173.22   -275718.91   0.94256837   0.70681339   0.29969265       73.664    63.794896       36.752   -228024.88   -308813.26 
   33700           13    172711.88       73.664    73.664001       36.752          120    -204182.5   -204173.22   -275718.91   0.94256837   0.70681339   0.29969265       73.664    63.794896       36.752   -228024.88   -308813.26 
   33800           13    172711.88       73.664    73.664001       36.752          120    -204182.5   -204173.22   -275718.91   0.94256837   0.70681339   0.29969265       73.664    63.794896       36.752   -228024.88   -308813.26 
   33900           13    172711.88       73.664    73.664001       36.752          120    -204182.5   -204173.22   -275718.91   0.94256837   0.70681339   0.29969265       73.664    63.794896       36.752   -228024.88   -308813.26 
   34000           13    172711.88       73.664    73.664001       36.752          120    -204182.5   -204173.22   -275718.91   0.94256837   0.70681339   0.29969265       73.664    63.794896       36.752   -228024.88   -308813.26 
   34100           13    172711.88       73.664    73.664001       36.752          120    -204182.5   -204173.22   -275718.91   0.94256837   0.70681339   0.29969265       73.664    63.794896       36.752   -228024.88   -308813.26 
   34200           13    172711.88       73.664    73.664001       36.752          120    -204182.5   -204173.22   -275718.91   0.94256837   0.70681339   0.29969265       73.664    63.794896       36.752   -228024.88   -308813.26 
   34300           13    172711.88       73.664    73.664001       36.752          120    -204182.5   -204173.22   -275718.91   0.94256837   0.70681339   0.29969265       73.664    63.794896       36.752   -228024.88   -308813.26 
   34400           13    172711.88       73.664    73.664001       36.752          120    -204182.5   -204173.22   -275718.91   0.94256837   0.70681339   0.29969265       73.664    63.794896       36.752   -228024.88   -308813.26 
   34500           13    172711.88       73.664    73.664001       36.752          120    -204182.5   -204173.22   -275718.91   0.94256837   0.70681339   0.29969265       73.664    63.794896       36.752   -228024.88   -308813.26 
   34600           13    172711.88       73.664    73.664001       36.752          120    -204182.5   -204173.22   -275718.91   0.94256837   0.70681339   0.29969265       73.664    63.794896       36.752   -228024.88   -308813.26 
   34700           13    172711.88       73.664    73.664001       36.752          120    -204182.5   -204173.22   -275718.91   0.94256837   0.70681339   0.29969265       73.664    63.794896       36.752   -228024.88   -308813.26 
   34800           13    172711.88       73.664    73.664001       36.752          120    -204182.5   -204173.22   -275718.91   0.94256837   0.70681339   0.29969265       73.664    63.794896       36.752   -228024.88   -308813.26 
   34900           13    172711.88       73.664    73.664001       36.752          120    -204182.5   -204173.22   -275718.91   0.94256837   0.70681339   0.29969265       73.664    63.794896       36.752   -228024.88   -308813.26 
   35000           13    172711.88       73.664    73.664001       36.752          120    -204182.5   -204173.22   -275718.91   0.94256837   0.70681339   0.29969265       73.664    63.794896       36.752   -228024.88   -308813.26 
   35100           13    172711.88       73.664    73.664001       36.752          120    -204182.5   -204173.22   -275718.91   0.94256837   0.70681339   0.29969265       73.664    63.794896       36.752   -228024.88   -308813.26 
   35200           13    172711.88       73.664    73.664001       36.752          120    -204182.5   -204173.22   -275718.91   0.94256837   0.70681339   0.29969265       73.664    63.794896       36.752   -228024.88   -308813.26 
   35300           13    172711.88       73.664    73.664001       36.752          120    -204182.5   -204173.22   -275718.91   0.94256837   0.70681339   0.29969265       73.664    63.794896       36.752   -228024.88   -308813.26 
   35400           13    172711.88       73.664    73.664001       36.752          120    -204182.5   -204173.22   -275718.91   0.94256837   0.70681339   0.29969265       73.664    63.794896       36.752   -228024.88   -308813.26 
   35500           13    172711.88       73.664    73.664001       36.752          120    -204182.5   -204173.22   -275718.91   0.94256837   0.70681339   0.29969265       73.664    63.794896       36.752   -228024.88   -308813.26 
   35600           13    172711.88       73.664    73.664001       36.752          120    -204182.5   -204173.22   -275718.91   0.94256837   0.70681339   0.29969265       73.664    63.794896       36.752   -228024.88   -308813.26 
   35700           13    172711.88       73.664    73.664001       36.752          120    -204182.5   -204173.22   -275718.91   0.94256837   0.70681339   0.29969265       73.664    63.794896       36.752   -228024.88   -308813.26 
[...]
   95600           12    172711.88       73.664    73.664001       36.752          120   -204194.33   -204185.17   -275730.73   0.97005918   0.65210815    0.2765132       73.664    63.794896       36.752   -228036.75   -308813.26 
   95700           12    172711.88       73.664    73.664001       36.752          120   -204194.33   -204185.17   -275730.73   0.97005918   0.65210815    0.2765132       73.664    63.794896       36.752   -228036.75   -308813.26 
   95800           12    172711.88       73.664    73.664001       36.752          120   -204194.33   -204185.17   -275730.73   0.97005918   0.65210815    0.2765132       73.664    63.794896       36.752   -228036.75   -308813.26 
   95900           12    172711.88       73.664    73.664001       36.752          120   -204194.33   -204185.17   -275730.73   0.97005918   0.65210815    0.2765132       73.664    63.794896       36.752   -228036.75   -308813.26 
   96000           12    172711.88       73.664    73.664001       36.752          120   -204194.33   -204185.17   -275730.73   0.97005918   0.65210815    0.2765132       73.664    63.794896       36.752   -228036.75   -308813.26 
   96100           12    172711.88       73.664    73.664001       36.752          120   -204194.33   -204185.17   -275730.73   0.97005918   0.65210815    0.2765132       73.664    63.794896       36.752   -228036.75   -308813.26 
   96200           12    172711.88       73.664    73.664001       36.752          120   -204194.33   -204185.17   -275730.73   0.97005918   0.65210815    0.2765132       73.664    63.794896       36.752   -228036.75   -308813.26 
   96300           12    172711.88       73.664    73.664001       36.752          120   -204194.33   -204185.17   -275730.73   0.97005918   0.65210815    0.2765132       73.664    63.794896       36.752   -228036.75   -308813.26 
   96400           12    172711.88       73.664    73.664001       36.752          120   -204194.33   -204185.17   -275730.73   0.97005918   0.65210815    0.2765132       73.664    63.794896       36.752   -228036.75   -308813.26 
   96500           12    172711.88       73.664    73.664001       36.752          120   -204194.33   -204185.17   -275730.73   0.97005918   0.65210815    0.2765132       73.664    63.794896       36.752   -228036.75   -308813.26 
   96600           12    172711.88       73.664    73.664001       36.752          120   -204194.33   -204185.17   -275730.73   0.97005918   0.65210815    0.2765132       73.664    63.794896       36.752   -228036.75   -308813.26 
   96700           12    172711.88       73.664    73.664001       36.752          120   -204194.33   -204185.17   -275730.73   0.97005918   0.65210815    0.2765132       73.664    63.794896       36.752   -228036.75   -308813.26 
   96800           12    172711.88       73.664    73.664001       36.752          120   -204194.33   -204185.17   -275730.73   0.97005918   0.65210815    0.2765132       73.664    63.794896       36.752   -228036.75   -308813.26 
   96900           12    172711.88       73.664    73.664001       36.752          120   -204194.33   -204185.17   -275730.73   0.97005918   0.65210815    0.2765132       73.664    63.794896       36.752   -228036.75   -308813.26 
   97000           12    172711.88       73.664    73.664001       36.752          120   -204194.33   -204185.17   -275730.73   0.97005918   0.65210815    0.2765132       73.664    63.794896       36.752   -228036.75   -308813.26 
   97100           12    172711.88       73.664    73.664001       36.752          120   -204194.33   -204185.17   -275730.73   0.97005918   0.65210815    0.2765132       73.664    63.794896       36.752   -228036.75   -308813.26 
   97200           12    172711.88       73.664    73.664001       36.752          120   -204194.33   -204185.17   -275730.73   0.97005918   0.65210815    0.2765132       73.664    63.794896       36.752   -228036.75   -308813.26 
   97300           12    172711.88       73.664    73.664001       36.752          120   -204194.33   -204185.17   -275730.73   0.97005918   0.65210815    0.2765132       73.664    63.794896       36.752   -228036.75   -308813.26 
   97400           12    172711.88       73.664    73.664001       36.752          120   -204194.33   -204185.17   -275730.73   0.97005918   0.65210815    0.2765132       73.664    63.794896       36.752   -228036.75   -308813.26 
   97500           12    172711.88       73.664    73.664001       36.752          120   -204194.33   -204185.17   -275730.73   0.97005918   0.65210815    0.2765132       73.664    63.794896       36.752   -228036.75   -308813.26 
   97600           12    172711.88       73.664    73.664001       36.752          120   -204194.33   -204185.17   -275730.73   0.97005918   0.65210815    0.2765132       73.664    63.794896       36.752   -228036.75   -308813.26 
   97700           12    172711.88       73.664    73.664001       36.752          120   -204194.33   -204185.17   -275730.73   0.97005918   0.65210815    0.2765132       73.664    63.794896       36.752   -228036.75   -308813.26 
   97800           12    172711.88       73.664    73.664001       36.752          120   -204194.33   -204185.17   -275730.73   0.97005918   0.65210815    0.2765132       73.664    63.794896       36.752   -228036.75   -308813.26 
   97900           12    172711.88       73.664    73.664001       36.752          120   -204194.33   -204185.17   -275730.73   0.97005918   0.65210815    0.2765132       73.664    63.794896       36.752   -228036.75   -308813.26 
   98000           12    172711.88       73.664    73.664001       36.752          120   -204194.33   -204185.17   -275730.73   0.97005918   0.65210815    0.2765132       73.664    63.794896       36.752   -228036.75   -308813.26 
   98100           12    172711.88       73.664    73.664001       36.752          120   -204194.33   -204185.17   -275730.73   0.97005918   0.65210815    0.2765132       73.664    63.794896       36.752   -228036.75   -308813.26 
   98200           12    172711.88       73.664    73.664001       36.752          120   -204194.33   -204185.17   -275730.73   0.97005918   0.65210815    0.2765132       73.664    63.794896       36.752   -228036.75   -308813.26 
   98300           12    172711.88       73.664    73.664001       36.752          120   -204194.33   -204185.17   -275730.73   0.97005918   0.65210815    0.2765132       73.664    63.794896       36.752   -228036.75   -308813.26 
   98400           12    172711.88       73.664    73.664001       36.752          120   -204194.33   -204185.17   -275730.73   0.97005918   0.65210815    0.2765132       73.664    63.794896       36.752   -228036.75   -308813.26 
   98500           12    172711.88       73.664    73.664001       36.752          120   -204194.33   -204185.17   -275730.73   0.97005918   0.65210815    0.2765132       73.664    63.794896       36.752   -228036.75   -308813.26 
   98600           12    172711.88       73.664    73.664001       36.752          120   -204194.33   -204185.17   -275730.73   0.97005918   0.65210815    0.2765132       73.664    63.794896       36.752   -228036.75   -308813.26 
   98700           12    172711.88       73.664    73.664001       36.752          120   -204194.33   -204185.17   -275730.73   0.97005918   0.65210815    0.2765132       73.664    63.794896       36.752   -228036.75   -308813.26 
   98800           12    172711.88       73.664    73.664001       36.752          120   -204194.33   -204185.17   -275730.73   0.97005918   0.65210815    0.2765132       73.664    63.794896       36.752   -228036.75   -308813.26 
   98900           12    172711.88       73.664    73.664001       36.752          120   -204194.33   -204185.17   -275730.73   0.97005918   0.65210815    0.2765132       73.664    63.794896       36.752   -228036.75   -308813.26 
   99000           12    172711.88       73.664    73.664001       36.752          120   -204194.33   -204185.17   -275730.73   0.97005918   0.65210815    0.2765132       73.664    63.794896       36.752   -228036.75   -308813.26 
   99100           12    172711.88       73.664    73.664001       36.752          120   -204194.33   -204185.17   -275730.73   0.97005918   0.65210815    0.2765132       73.664    63.794896       36.752   -228036.75   -308813.26 
   99200           12    172711.88       73.664    73.664001       36.752          120   -204194.33   -204185.17   -275730.73   0.97005918   0.65210815    0.2765132       73.664    63.794896       36.752   -228036.75   -308813.26 
   99300           12    172711.88       73.664    73.664001       36.752          120   -204194.33   -204185.17   -275730.73   0.97005918   0.65210815    0.2765132       73.664    63.794896       36.752   -228036.75   -308813.26 
   99400           12    172711.88       73.664    73.664001       36.752          120   -204194.33   -204185.17   -275730.73   0.97005918   0.65210815    0.2765132       73.664    63.794896       36.752   -228036.75   -308813.26 
   99500           12    172711.88       73.664    73.664001       36.752          120   -204194.33   -204185.17   -275730.73   0.97005918   0.65210815    0.2765132       73.664    63.794896       36.752   -228036.75   -308813.26 
   99600           12    172711.88       73.664    73.664001       36.752          120   -204194.33   -204185.17   -275730.73   0.97005918   0.65210815    0.2765132       73.664    63.794896       36.752   -228036.75   -308813.26 
   99700           12    172711.88       73.664    73.664001       36.752          120   -204194.33   -204185.17   -275730.73   0.97005918   0.65210815    0.2765132       73.664    63.794896       36.752   -228036.75   -308813.26 
   99800           12    172711.88       73.664    73.664001       36.752          120   -204194.33   -204185.17   -275730.73   0.97005918   0.65210815    0.2765132       73.664    63.794896       36.752   -228036.75   -308813.26 
   99900           12    172711.88       73.664    73.664001       36.752          120   -204194.33   -204185.17   -275730.73   0.97005918   0.65210815    0.2765132       73.664    63.794896       36.752   -228036.75   -308813.26 
  100000           12    172711.88       73.664    73.664001       36.752          120   -204194.33   -204185.17   -275730.73   0.97005918   0.65210815    0.2765132       73.664    63.794896       36.752   -228036.75   -308813.26 
Loop time of 36061 on 1 procs for 100000 steps with 14848 atoms

Performance: 0.120 ns/day, 200.339 hours/ns, 2.773 timesteps/s
100.0% CPU use with 1 MPI tasks x 1 OpenMP threads

MPI task timing breakdown:
Section |  min time  |  avg time  |  max time  |%varavg| %total
---------------------------------------------------------------
Pair    | 34172      | 34172      | 34172      |   0.0 | 94.76
Bond    | 0.039411   | 0.039411   | 0.039411   |   0.0 |  0.00
Kspace  | 1841.9     | 1841.9     | 1841.9     |   0.0 |  5.11
Neigh   | 0          | 0          | 0          |   0.0 |  0.00
Comm    | 35.344     | 35.344     | 35.344     |   0.0 |  0.10
Output  | 0.22458    | 0.22458    | 0.22458    |   0.0 |  0.00
Modify  | 0.094445   | 0.094445   | 0.094445   |   0.0 |  0.00
Other   |            | 11.86      |            |       |  0.03

Nlocal:    14848 ave 14848 max 14848 min
Histogram: 1 0 0 0 0 0 0 0 0 0
Nghost:    46016 ave 46016 max 46016 min
Histogram: 1 0 0 0 0 0 0 0 0 0
Neighs:    9.5447e+06 ave 9.5447e+06 max 9.5447e+06 min
Histogram: 1 0 0 0 0 0 0 0 0 0

Total # of neighbors = 9544704
Ave neighs/atom = 642.828
Ave special neighs/atom = 0
Neighbor list builds = 0
Dangerous builds = 0
variable	probeTemp delete

print		" "
 
print		"All done!"
All done!
Total wall time: 10:01:02

.88       73.664    73.664001       36.752          120    -204182.5   -204173.22   -275718.91   0.94256837   0.70681339   0.29969265       73.664    63.794896       36.752   -228024.88   -308813.26 
   97200           13    172711.88       73.664    73.664001       36.752          120    -204182.5   -204173.22   -275718.91   0.94256837   0.70681339   0.29969265       73.664    63.794896       36.752   -228024.88   -308813.26 
   97300           13    172711.88       73.664    73.664001       36.752          120    -204182.5   -204173.22   -275718.91   0.94256837   0.70681339   0.29969265       73.664    63.794896       36.752   -228024.88   -308813.26 
   97400           13    172711.88       73.664    73.664001       36.752          120    -204182.5   -204173.22   -275718.91   0.94256837   0.70681339   0.29969265       73.664    63.794896       36.752   -228024.88   -308813.26 
   97500           13    172711.88       73.664    73.664001       36.752          120    -204182.5   -204173.22   -275718.91   0.94256837   0.70681339   0.29969265       73.664    63.794896       36.752   -228024.88   -308813.26 
   97600           13    172711.88       73.664    73.664001       36.752          120    -204182.5   -204173.22   -275718.91   0.94256837   0.70681339   0.29969265       73.664    63.794896       36.752   -228024.88   -308813.26 
   97700           13    172711.88       73.664    73.664001       36.752          120    -204182.5   -204173.22   -275718.91   0.94256837   0.70681339   0.29969265       73.664    63.794896       36.752   -228024.88   -308813.26 
   97800           13    172711.88       73.664    73.664001       36.752          120    -204182.5   -204173.22   -275718.91   0.94256837   0.70681339   0.29969265       73.664    63.794896       36.752   -228024.88   -308813.26 
   97900           13    172711.88       73.664    73.664001       36.752          120    -204182.5   -204173.22   -275718.91   0.94256837   0.70681339   0.29969265       73.664    63.794896       36.752   -228024.88   -308813.26 
   98000           13    172711.88       73.664    73.664001       36.752          120    -204182.5   -204173.22   -275718.91   0.94256837   0.70681339   0.29969265       73.664    63.794896       36.752   -228024.88   -308813.26 
   98100           13    172711.88       73.664    73.664001       36.752          120    -204182.5   -204173.22   -275718.91   0.94256837   0.70681339   0.29969265       73.664    63.794896       36.752   -228024.88   -308813.26 
   98200           13    172711.88       73.664    73.664001       36.752          120    -204182.5   -204173.22   -275718.91   0.94256837   0.70681339   0.29969265       73.664    63.794896       36.752   -228024.88   -308813.26 
   98300           13    172711.88       73.664    73.664001       36.752          120    -204182.5   -204173.22   -275718.91   0.94256837   0.70681339   0.29969265       73.664    63.794896       36.752   -228024.88   -308813.26 
   98400           13    172711.88       73.664    73.664001       36.752          120    -204182.5   -204173.22   -275718.91   0.94256837   0.70681339   0.29969265       73.664    63.794896       36.752   -228024.88   -308813.26 
   98500           13    172711.88       73.664    73.664001       36.752          120    -204182.5   -204173.22   -275718.91   0.94256837   0.70681339   0.29969265       73.664    63.794896       36.752   -228024.88   -308813.26 
   98600           13    172711.88       73.664    73.664001       36.752          120    -204182.5   -204173.22   -275718.91   0.94256837   0.70681339   0.29969265       73.664    63.794896       36.752   -228024.88   -308813.26 
   98700           13    172711.88       73.664    73.664001       36.752          120    -204182.5   -204173.22   -275718.91   0.94256837   0.70681339   0.29969265       73.664    63.794896       36.752   -228024.88   -308813.26 
   98800           13    172711.88       73.664    73.664001       36.752          120    -204182.5   -204173.22   -275718.91   0.94256837   0.70681339   0.29969265       73.664    63.794896       36.752   -228024.88   -308813.26 
   98900           13    172711.88       73.664    73.664001       36.752          120    -204182.5   -204173.22   -275718.91   0.94256837   0.70681339   0.29969265       73.664    63.794896       36.752   -228024.88   -308813.26 
   99000           13    172711.88       73.664    73.664001       36.752          120    -204182.5   -204173.22   -275718.91   0.94256837   0.70681339   0.29969265       73.664    63.794896       36.752   -228024.88   -308813.26 
   99100           13    172711.88       73.664    73.664001       36.752          120    -204182.5   -204173.22   -275718.91   0.94256837   0.70681339   0.29969265       73.664    63.794896       36.752   -228024.88   -308813.26 
   99200           13    172711.88       73.664    73.664001       36.752          120    -204182.5   -204173.22   -275718.91   0.94256837   0.70681339   0.29969265       73.664    63.794896       36.752   -228024.88   -308813.26 
   99300           13    172711.88       73.664    73.664001       36.752          120    -204182.5   -204173.22   -275718.91   0.94256837   0.70681339   0.29969265       73.664    63.794896       36.752   -228024.88   -308813.26 
   99400           13    172711.88       73.664    73.664001       36.752          120    -204182.5   -204173.22   -275718.91   0.94256837   0.70681339   0.29969265       73.664    63.794896       36.752   -228024.88   -308813.26 
   99500           13    172711.88       73.664    73.664001       36.752          120    -204182.5   -204173.22   -275718.91   0.94256837   0.70681339   0.29969265       73.664    63.794896       36.752   -228024.88   -308813.26 
   99600           13    172711.88       73.664    73.664001       36.752          120    -204182.5   -204173.22   -275718.91   0.94256837   0.70681339   0.29969265       73.664    63.794896       36.752   -228024.88   -308813.26 
   99700           13    172711.88       73.664    73.664001       36.752          120    -204182.5   -204173.22   -275718.91   0.94256837   0.70681339   0.29969265       73.664    63.794896       36.752   -228024.88   -308813.26 
   99800           13    172711.88       73.664    73.664001       36.752          120    -204182.5   -204173.22   -275718.91   0.94256837   0.70681339   0.29969265       73.664    63.794896       36.752   -228024.88   -308813.26 
   99900           13    172711.88       73.664    73.664001       36.752          120    -204182.5   -204173.22   -275718.91   0.94256837   0.70681339   0.29969265       73.664    63.794896       36.752   -228024.88   -308813.26 
  100000           13    172711.88       73.664    73.664001       36.752          120    -204182.5   -204173.22   -275718.91   0.94256837   0.70681339   0.29969265       73.664    63.794896       36.752   -228024.88   -308813.26 
Loop time of 32240.8 on 1 procs for 100000 steps with 14848 atoms

Performance: 0.134 ns/day, 179.115 hours/ns, 3.102 timesteps/s
99.5% CPU use with 1 MPI tasks x 1 OpenMP threads

MPI task timing breakdown:
Section |  min time  |  avg time  |  max time  |%varavg| %total
---------------------------------------------------------------
Pair    | 30359      | 30359      | 30359      |   0.0 | 94.16
Bond    | 0.043967   | 0.043967   | 0.043967   |   0.0 |  0.00
Kspace  | 1679.2     | 1679.2     | 1679.2     |   0.0 |  5.21
Neigh   | 0          | 0          | 0          |   0.0 |  0.00
Comm    | 31.311     | 31.311     | 31.311     |   0.0 |  0.10
Output  | 160.66     | 160.66     | 160.66     |   0.0 |  0.50
Modify  | 0.080463   | 0.080463   | 0.080463   |   0.0 |  0.00
Other   |            | 10.68      |            |       |  0.03

Nlocal:    14848 ave 14848 max 14848 min
Histogram: 1 0 0 0 0 0 0 0 0 0
Nghost:    46016 ave 46016 max 46016 min
Histogram: 1 0 0 0 0 0 0 0 0 0
Neighs:    9.5447e+06 ave 9.5447e+06 max 9.5447e+06 min
Histogram: 1 0 0 0 0 0 0 0 0 0

Total # of neighbors = 9544704
Ave neighs/atom = 642.828
Ave special neighs/atom = 0
Neighbor list builds = 0
Dangerous builds = 0
variable	probeTemp delete

print		" "
 
print		"All done!"
All done!
Total wall time: 8:57:21

 