LAMMPS (16 Mar 2018)
Reading data file ...
  triclinic box = (0 0 0) to (9.208 7.97436 18.376) with tilt (-4.604 0 0)
  1 by 1 by 1 MPI processor grid
  reading atoms ...
  116 atoms
Finding 1-2 1-3 1-4 neighbors ...
  special bond factors lj:   0          0          0         
  special bond factors coul: 0          0          0         
  0 = max # of 1-2 neighbors
  0 = max # of 1-3 neighbors
  0 = max # of 1-4 neighbors
  1 = max # of special neighbors
Replicating atoms ...
  triclinic box = (0 0 0) to (73.664 63.7949 36.752) with tilt (-36.832 0 0)
  1 by 1 by 1 MPI processor grid
  14848 atoms
Finding 1-2 1-3 1-4 neighbors ...
  special bond factors lj:   0          0          0         
  special bond factors coul: 0          0          0         
  0 = max # of 1-2 neighbors
  0 = max # of 1-3 neighbors
  0 = max # of 1-4 neighbors
  1 = max # of special neighbors
  Time spent = 0.00274301 secs
PPPM initialization ...
WARNING: System is not charge neutral, net charge = -0.2048 (../kspace.cpp:302)
  using 12-bit tables for long-range coulomb (../kspace.cpp:321)
  G vector (1/distance) = 0.201681
  grid = 36 50 24
  stencil order = 5
  estimated absolute RMS force accuracy = 0.00105653
  estimated relative force accuracy = 7.33721e-05
  using double precision FFTs
  3d grid and FFT values/proc = 65395 43200
Neighbor list info ...
  update every 1 steps, delay 0 steps, check yes
  max neighbors/atom: 2000, page size: 100000
  master list distance cutoff = 15.3
  ghost atom cutoff = 15.3
  binsize = 7.65, bins = 15 9 5
  3 neighbor lists, perpetual/occasional/extra = 3 0 0
  (1) pair morse, perpetual
      attributes: half, newton on
      pair build: half/bin/newton/tri
      stencil: half/bin/3d/newton/tri
      bin: standard
  (2) pair buck, perpetual, copy from (1)
      attributes: half, newton on
      pair build: copy
      stencil: none
      bin: none
  (3) pair lj/cut/coul/long, perpetual, copy from (1)
      attributes: half, newton on
      pair build: copy
      stencil: none
      bin: none
Setting up Verlet run ...
  Unit style    : metal
  Current step  : 0
  Time step     : 0.001
Per MPI rank memory allocation (min/avg/max) = 145.7 | 145.7 | 145.7 Mbytes
Step Temp Volume Cella Cellb Cellc CellGamma Pxx Pyy Pzz Pxy Pxz Pyz Lx Ly Lz Press PotEng 
       0          280    172711.88       73.664    73.664001       36.752          120   -208175.21   -208219.87   -279201.06    23.346443   -7.1224217    9.5219257       73.664    63.794896       36.752   -231865.38   -309191.56 
      10    350.53076     172639.9    73.653765    73.653765    36.746893          120   -209901.93   -209987.53    -257087.8    114.34057    -23.87538   -171.27141    73.653765    63.786032    36.746893   -225659.09    -309359.4 
      20    618.23113    172428.51    73.623691    73.623692    36.731889          120   -206843.26   -206475.01   -197672.91    32.380728   -257.00276   -375.20316    73.623691    63.759988    36.731889   -203663.72   -309915.49 
      30    627.71459    172095.12     73.57621     73.57621      36.7082          120    -179415.9   -179000.82   -118227.64   -204.05658   -823.24389    -449.0227     73.57621    63.718868      36.7082   -158881.45   -309994.62 
      40    410.05169    171676.08    73.516444    73.516445    36.678382          120   -133839.62   -134030.86   -38479.612   -632.12774    -1145.888   -485.14595    73.516444    63.667109    36.678382    -102116.7   -309621.42 
      50    496.31753    171219.77    73.451251    73.451251    36.645856          120   -92514.028   -93103.279   -5852.0592   -679.20938   -1192.7681   -620.36538    73.451251     63.61065    36.645856   -63823.122   -309814.66 
      60     793.6901    170765.46     73.38623     73.38623    36.613416          120   -68149.131   -68020.747   -43654.205   -661.59018   -2062.2346    -450.4097     73.38623     63.55434    36.613416   -59941.361   -310418.18 
      70    968.31335    170330.52    73.323871    73.323871    36.582305          120   -52713.377    -52512.46   -106746.12   -1646.6108   -2426.8955   -491.76065    73.323871    63.500335    36.582305   -70657.321   -310815.75 
      80    829.88497    169918.39    73.264686    73.264686    36.552777          120   -43715.533   -44556.105   -152802.85   -1768.2404   -2885.4226    79.381021    73.264686     63.44908    36.552777   -80358.162   -310619.49 
      90    563.38092    169528.37    73.208586    73.208587    36.524788          120   -38391.279    -39130.34   -167384.95   -2006.5127   -3344.6252   -378.97342    73.208586    63.400496    36.524788   -81635.523   -310162.87 
     100    579.52169    169160.95     73.15566     73.15566    36.498382          120   -23199.896    -23380.31   -147176.64   -1748.1594   -3098.8749   -823.49525     73.15566    63.354661    36.498382   -64585.616   -310236.53 
     110    751.17401    168822.04    73.106772    73.106772    36.473991          120   -3591.4753   -3893.8401   -104767.71   -1837.2574   -2086.2029   -989.43535    73.106772    63.312322    36.473991   -37417.676   -310614.92 
     120    758.04111    168519.04    73.063009     73.06301    36.452157          120    7374.4454    7357.3606   -54593.126   -1842.5356   -1536.1158   -1482.8857    73.063009    63.274423    36.452157   -13287.107   -310681.98 
     130    655.00152    168255.23    73.024863    73.024864    36.433126          120     6156.477    7240.7044   -15240.072    -1735.444   -1456.8032   -1455.1809    73.024863    63.241387    36.433126    -614.2967   -310531.31 
     140    606.58873    168027.56     72.99191    72.991911    36.416685          120    1417.7322    1296.4573   -2663.6978   -1251.4465   -1236.7076   -1286.4408     72.99191    63.212849    36.416685    16.830582   -310476.54 
     150    656.44566    167827.73    72.962964    72.962965    36.402244          120   -6522.1061   -5385.1292   -24729.757   -1864.9067   -955.66032   -653.54616    72.962964    63.187781    36.402244   -12212.331   -310611.59 
     160    718.01623    167643.05    72.936191    72.936191    36.388886          120   -16846.241   -15238.528   -60266.672   -1629.8143   -1253.0167   -698.15172    72.936191    63.164595    36.388886   -30783.814   -310778.91 
     170    702.22062    167460.03    72.909639     72.90964    36.375639          120   -21751.896   -19635.728   -90661.086   -714.79984   -2106.9841   -1050.7129    72.909639      63.1416    36.375639   -44016.236   -310802.57 
     180    626.33647    167269.88    72.882032    72.882033    36.361865          120   -18857.258   -17035.453   -108225.98   -590.58065   -2362.7352   -1131.4331    72.882032    63.117692    36.361865   -48039.563    -310708.2 
     190    599.81112    167070.06       72.853       72.853    36.347381          120   -14073.885   -12940.032   -107241.75    93.759103   -1836.0784    -1194.535       72.853    63.092549    36.347381   -44751.888   -310703.32 
     200    635.26142    166862.86     72.82287    72.822871    36.332349          120   -9743.1816   -9090.5165   -88393.054   -631.02715   -1913.0922   -1053.2493     72.82287    63.066456    36.332349   -35742.251   -310817.17 
     210    643.74639    166653.75    72.792437    72.792437    36.317165          120   -5105.7928   -4385.8414   -64828.179   -979.01191    -1728.279   -832.24269    72.792437      63.0401    36.317165   -24773.271   -310880.99 
     220    620.85798    166449.06    72.762623    72.762623     36.30229          120   -1489.3626   -386.45683   -45530.015   -867.95963   -1264.8171   -1905.0577    72.762623     63.01428     36.30229   -15801.945   -310881.71 
     230    599.12347    166253.45    72.734108    72.734109    36.288064          120   -939.60647   -409.60751   -37634.101   -622.93424   -862.68129   -2501.2314    72.734108    62.989586    36.288064   -12994.438   -310882.83 
     240    597.44571    166067.98    72.707051    72.707051    36.274565          120   -3154.7212   -2556.9291   -41501.359   -363.62352   -1564.8508   -2480.8693    72.707051    62.966154    36.274565    -15737.67   -310920.92 
     250    610.78292    165890.54    72.681146    72.681146     36.26164          120   -5427.5219   -5455.4936   -55087.084    265.96899   -1484.3944    -2220.624    72.681146    62.943719     36.26164   -21990.033   -310990.55 
     260    609.04844    165717.36    72.655846    72.655846    36.249018          120   -6191.4971   -7353.0835   -69595.352    545.24177   -1298.4475   -2630.4562    72.655846    62.921809    36.249018   -27713.311   -311032.88 
     270    585.52034    165545.29    72.630691    72.630691    36.236468          120   -5269.8695    -6664.474   -77546.883    5.0219325    -1171.158   -1725.5751    72.630691    62.900024    36.236468   -29827.076   -311032.58 
     280    564.71395    165373.37    72.605539    72.605539    36.223919          120   -3378.7292   -4003.1584   -76838.806   -131.09795   -858.79978   -632.10931    72.605539    62.878242    36.223919   -28073.564   -311034.65 
     290    563.80972    165202.79    72.580566    72.580566     36.21146          120   -289.02368     195.4838    -68130.44    55.680901    -1091.189    -667.1417    72.580566    62.856614     36.21146   -22741.327   -311074.09 
     300    563.87583    165036.48    72.556203    72.556204    36.199305          120    3840.2302    4409.2137   -55447.975    44.065904   -1175.5177    -563.1792    72.556203    62.835516    36.199305   -15732.844   -311113.93 
     310    555.13569    164877.95    72.532963    72.532963     36.18771          120    6485.3124    7117.9439   -42035.929    252.96676   -1058.4951   -761.31849    72.532963    62.815389     36.18771   -9477.5574   -311135.68 
     320    544.20364    164729.77    72.511228    72.511228    36.176866          120    7289.4361     7981.294   -33917.048    535.76812   -1360.5994   -1292.4234    72.511228    62.796566    36.176866   -6215.4393    -311152.2 
     330    537.98418    164592.66    72.491104    72.491105    36.166826          120    5966.4319    6995.8619   -33859.113    281.25761   -1246.6103   -1280.0722    72.491104    62.779138    36.166826   -6965.6062   -311177.18 
     340     533.9926    164465.12    72.472376    72.472376    36.157482          120    4318.2127    5745.9739    -41571.66    185.16058   -729.31323   -1386.4805    72.472376    62.762919    36.157482   -10502.491   -311205.48 
     350    528.31986    164344.31    72.454625    72.454626    36.148626          120     3787.357    4364.3687   -51894.475    380.02718    319.43991   -757.18639    72.454625    62.747547    36.148626   -14580.916   -311230.56 
     360    511.43765    164227.38    72.437439    72.437439    36.140051          120    4214.6305    5513.2292   -59075.061   -470.79045    168.16822   -1012.8718    72.437439    62.732663    36.140051   -16449.067   -311233.19 
     370    501.74536    164112.89    72.420601    72.420602    36.131651          120    5442.2709    7884.8972   -59732.777   -662.27872   -1178.8972   -1401.5765    72.420601    62.718081    36.131651   -15468.536   -311248.42 
     380    498.32837       164001    72.404138    72.404139    36.123437          120    7613.6855    10441.936   -54924.886   -940.68009   -1047.5423   -1340.3346    72.404138    62.703824    36.123437   -12289.755   -311274.65 
     390    494.96931    163892.97    72.388238    72.388238    36.115504          120    10096.583    11739.725   -46966.806   -1244.8159   -1103.0062   -1491.8072    72.388238    62.690053    36.115504   -8376.8326   -311300.55 
     400    482.79287    163790.46    72.373143    72.373143    36.107973          120    12675.901    13659.265    -38160.28    96.701355   -1451.8589   -1174.6486    72.373143    62.676981    36.107973   -3941.7046   -311308.36 
     410    478.12694     163695.1    72.359095    72.359095    36.100964          120    13166.548    15280.437   -32009.237     499.4379   -1266.8812   -1770.7103    72.359095    62.664815    36.100964   -1187.4172   -311330.08 
     420    476.13281    163607.53    72.346189    72.346189    36.094526          120     12983.63    15152.746   -31816.668    525.69616   -557.79802   -1379.8197    72.346189    62.653638    36.094526   -1226.7637   -311356.55 
     430    469.97626    163526.91    72.334304    72.334305    36.088596          120    12153.699    13219.288   -35694.301    662.16786   -1100.1394   -326.97103    72.334304    62.643345    36.088596   -3440.4382   -311374.12 
     440    464.39057    163451.42    72.323171    72.323171    36.083042          120    11877.444    11865.837    -41319.91    206.57091   -1275.0555   -56.347594    72.323171    62.633704    36.083042   -5858.8764   -311392.18 
     450    454.06912    163379.25    72.312525    72.312526     36.07773          120    12214.739    12154.048   -45961.811    407.78188   -749.19387   -308.56316    72.312525    62.624485     36.07773   -7197.6746    -311400.5 
     460    445.24775    163309.35    72.302212    72.302212    36.072585          120    12883.604    13611.057   -46926.982    859.89889   -158.99214   -681.98528    72.302212    62.615553    36.072585   -6810.7735   -311411.03 
     470    440.14485    163241.64    72.292217    72.292217    36.067598          120    14849.193    15453.181   -45148.982    921.81056    206.45518   -584.24941    72.292217    62.606897    36.067598   -4948.8693   -311427.32 
     480    436.02772    163176.79    72.282643    72.282644    36.062822          120     16337.51    16710.138   -40002.269    700.26612      154.093    356.28132    72.282643    62.598606    36.062822    -2318.207   -311445.09 
     490    429.72832    163115.86    72.273644    72.273645    36.058332          120    16868.907    17675.085   -34805.979    839.29839   -91.702976    556.04553    72.273644    62.590813    36.058332    -87.32894   -311457.89 
     500    424.60128    163059.68    72.265346    72.265347    36.054192          120    18401.486        19310   -31109.022    896.85757    319.44448    580.23841    72.265346    62.583627    36.054192    2200.8213   -311472.45 
     510    422.13433    163008.94    72.257851    72.257851    36.050452          120    18738.848    19629.691   -30392.161    644.11383    858.71591    833.79311    72.257851    62.577135    36.050452     2658.793   -311490.86 
     520    413.69153    162963.39    72.251119     72.25112    36.047094          120    18209.887    18163.249   -32371.891    564.29349    137.11957    348.00521    72.251119    62.571305    36.047094    1333.7487   -311497.71 
     530    407.45322    162921.96    72.244996    72.244997    36.044039          120    18483.066    17667.817   -35162.347    644.79937    156.66331   -15.605441    72.244996    62.566003    36.044039    329.51185   -311508.74 
     540    400.41265    162883.73    72.239344    72.239344    36.041219          120    18174.747    18326.422   -38548.097    1039.4006    -218.7791    -442.9321    72.239344    62.561108    36.041219   -682.30916   -311517.15 
     550    399.07835     162847.9    72.234047    72.234047    36.038576          120    18126.184    19082.139   -40109.559    1049.4103   -560.70004   -427.30855    72.234047     62.55652    36.038576   -967.07852   -311536.13 
     560    391.14425    162814.12    72.229053    72.229054    36.036085          120    18069.878     19290.58   -38269.208    379.25876   -778.87809    8.5732058    72.229053    62.552195    36.036085   -302.91666   -311542.43 
     570    387.66709    162782.58    72.224388    72.224388    36.033757          120    19608.148    19723.993   -35583.462    320.98335   -665.04625    332.27625    72.224388    62.548155    36.033757    1249.5596   -311556.69 
     580     384.7569    162753.86     72.22014    72.220141    36.031638          120    21093.317    20164.197   -32571.106    497.28742   -407.48413    691.51847     72.22014    62.544477    36.031638    2895.4691   -311571.06 
     590    377.10354     162728.6    72.216403    72.216404    36.029774          120    20832.214    20586.897   -30026.129     152.7955   -589.90224    166.74699    72.216403     62.54124    36.029774    3797.6609   -311576.25 
     600    375.72268    162707.02    72.213211    72.213212    36.028181          120    21210.775    20433.411   -29575.169    254.52689   -815.19456    776.26977    72.213211    62.538476    36.028181    4023.0059   -311592.29 
     610    371.57121    162688.96     72.21054    72.210541    36.026848          120    21469.169    20284.081   -31717.375    204.96874   -842.22674    247.07814     72.21054    62.536163    36.026848    3345.2919   -311602.91 
     620    370.79865    162673.83      72.2083    72.208301    36.025731          120    21149.349    20131.196   -34864.643   -337.45453   -148.72404   -459.40542      72.2083    62.534223    36.025731     2138.634   -311619.77 
     630     368.8838    162660.85    72.206381    72.206381    36.024773          120    21547.378    20095.433   -36230.795   -148.47042   -69.941853   -157.76507    72.206381     62.53256    36.024773    1804.0052   -311634.63 
     640    361.46943    162649.69    72.204729    72.204729    36.023949          120    22497.049    20607.618   -36268.571    625.36749   -697.57315   -1075.5498    72.204729     62.53113    36.023949    2278.6987   -311638.02 
     650    354.83932     162640.5    72.203368    72.203369     36.02327          120     23567.32     22365.01    -34310.78    542.50071   -852.10535    -1120.337    72.203368    62.529952     36.02327    3873.8502   -311642.49 
     660    351.32447    162633.89     72.20239    72.202391    36.022782          120    24181.949    22549.966   -32395.144    884.48882   -1164.1258   -1322.2912     72.20239    62.529105    36.022782    4778.9238    -311652.5 
     670    349.85016    162630.24     72.20185     72.20185    36.022513          120    23958.463     22533.77   -30467.061    1575.9585   -937.47147   -1196.3273     72.20185    62.528637    36.022513    5341.7241    -311665.7 
     680    347.14625    162629.63    72.201761    72.201761    36.022468          120     22638.77    22722.697   -30054.029    1042.5022   -1164.0474   -541.81408    72.201761     62.52856    36.022468    5102.4796   -311676.05 
     690    340.52392    162631.79    72.202079     72.20208    36.022627          120    22461.456    22170.029   -31334.392    486.22647   -1570.4406   -934.62872    72.202079    62.528836    36.022627    4432.3645   -311678.84 
     700    338.43611    162636.19    72.202731    72.202732    36.022953          120    22987.513    21255.125   -32439.883    307.69242   -1822.2224   -561.89068    72.202731      62.5294    36.022953    3934.2516   -311689.94 
     710    335.70286    162642.48    72.203662    72.203662    36.023417          120    22979.297    21602.294   -33045.277    71.333652   -2153.5568   -412.68756    72.203662    62.530206    36.023417    3845.4378   -311698.58 
     720    335.48523    162650.49    72.204847    72.204847    36.024008          120    23259.777    22055.789   -33476.032    10.793753   -1939.3552   -932.88984    72.204847    62.531232    36.024008    3946.5111   -311712.25 
     730    333.38214    162660.16    72.206278    72.206278    36.024722          120    23385.622    21912.131   -33998.509    266.33907   -1586.6532   -1788.6238    72.206278    62.532471    36.024722    3766.4145   -311721.88 
     740    328.29544    162671.32     72.20793    72.207931    36.025546          120    22685.497    22041.548   -33729.356    469.58361    -1704.308   -1568.7108     72.20793    62.533902    36.025546    3665.8964   -311726.05 
     750    323.53272    162683.87    72.209787    72.209787    36.026473          120    22666.716    21937.123   -32517.163    431.32311   -1842.7957    -1738.049    72.209787     62.53551    36.026473    4028.8917   -311730.31 
     760    320.17984    162697.91    72.211863    72.211863    36.027508          120    22662.266    21979.841   -31680.602     963.0091   -2446.5346   -1568.0299    72.211863    62.537308    36.027508    4320.5016   -311736.38 
     770    315.89022    162713.55    72.214177    72.214178    36.028663          120    23038.171    22609.387   -30616.769    292.31752   -2146.5555   -1985.6483    72.214177    62.539313    36.028663    5010.2633    -311740.3 
     780    318.99938    162731.01     72.21676    72.216761    36.029952          120     23531.62    22538.182   -31543.696    185.62254   -2465.6104   -1368.2259     72.21676     62.54155    36.029952    4842.0353   -311758.47 
     790    312.07567    162750.16    72.219592    72.219593    36.031365          120    23786.608     21773.24   -32605.179     456.1644   -2434.7877    -1378.265    72.219592    62.544002    36.031365     4318.223   -311757.16 
     800     307.5009    162770.61    72.222618    72.222618    36.032874          120    23278.805    21309.912   -34267.264     839.5023   -2193.1204   -1136.5335    72.222618    62.546622    36.032874    3440.4843   -311759.76 
     810    306.93199    162791.89    72.225764    72.225765    36.034444          120    22642.169    21346.553   -35334.836    1229.9914   -2383.0854   -1203.5196    72.225764    62.549347    36.034444    2884.6285   -311769.71 
     820    304.40147    162813.66    72.228984    72.228984     36.03605          120    22341.411    21740.601   -36073.679    1136.1663   -1906.0603   -1617.9849    72.228984    62.552135     36.03605    2669.4439   -311774.81 
     830     302.1995    162835.76    72.232252    72.232252    36.037681          120    22581.013    20526.049   -36238.968    676.50989   -1736.7657   -2025.1325    72.232252    62.554966    36.037681    2289.3646   -311780.42 
     840    299.56512    162858.05    72.235547    72.235548    36.039325          120    22378.328    20620.754   -34499.438    279.46654    -1850.637   -2023.8607    72.235547     62.55782    36.039325    2833.2146    -311785.4 
     850    296.02953    162880.74    72.238903    72.238904    36.040999          120    22901.179    20630.251   -33558.788    500.39378   -1997.7273   -1804.4924    72.238903    62.560726    36.040999    3324.2139   -311787.72 
     860    294.83895    162904.08    72.242352    72.242353     36.04272          120    22649.077    20955.184   -33767.695     635.6401   -2061.4599   -1994.4935    72.242352    62.563713     36.04272    3278.8555   -311794.69 
     870    293.21539    162928.04    72.245894    72.245894    36.044487          120    21838.555    21376.739   -34040.694    1101.8201   -1922.2255   -1529.5487    72.245894     62.56678    36.044487    3058.2001   -311800.25 
     880    289.58493    162952.44      72.2495    72.249501    36.046286          120    20595.512    20898.866   -35319.908    1270.6718   -1710.5048   -1134.2089      72.2495    62.569903    36.046286    2058.1564   -311801.38 
     890    287.52404    162976.76    72.253095    72.253096     36.04808          120    20249.962    20245.974   -37018.765    1215.7971   -1134.9827   -687.92778    72.253095    62.573016     36.04808    1159.0571    -311805.4 
     900    287.14832    163000.55     72.25661    72.256611    36.049834          120    19784.671    19549.346   -37140.339    736.57487   -1664.9142   -746.32379     72.25661    62.576061    36.049834    731.22589   -311812.29 
     910    285.47441    163023.62    72.260019    72.260019    36.051534          120     20306.86    19007.791   -36855.213    705.39681   -2261.7556   -428.41037    72.260019    62.579013    36.051534    819.81242   -311816.44 
     920    285.49515    163046.04    72.263331    72.263332    36.053187          120    20479.135    18981.836   -36196.543    621.24458   -2210.0031   -690.40012    72.263331    62.581881    36.053187    1088.1423   -311824.01 
     930    287.06579       163068    72.266575    72.266576    36.054805          120    20012.495    19163.386   -35041.393    347.88559   -1263.8329    -1342.006    72.266575    62.584691    36.054805    1378.1626   -311833.47 
     940    281.75934    163089.63     72.26977    72.269771    36.056399          120    19055.135    18850.069   -35208.276    967.03578   -1830.8402   -1343.4169     72.26977    62.587458    36.056399    898.97613   -311829.77 
     950    281.87077    163110.75    72.272891    72.272891    36.057956          120    18496.499    18941.697   -35114.044    1217.7063   -1876.8455   -1923.9844    72.272891     62.59016    36.057956    774.71743   -311835.92 
     960    283.00622    163131.31    72.275926    72.275927    36.059471          120    19111.296    18998.696   -35991.327    963.17218   -620.39742   -1418.8148    72.275926    62.592789    36.059471    706.22183   -311844.03 
     970    278.45386    163151.26    72.278873    72.278874    36.060941          120    18885.382    18774.031   -36837.588    725.54207   -810.06913   -1152.1106    72.278873    62.595341    36.060941    273.94144   -311841.02 
     980    274.94736    163170.46    72.281708    72.281709    36.062355          120    19173.625    18255.887   -37365.333    660.57914   -1495.3223    -1454.142    72.281708    62.597796    36.062355    21.393122   -311839.66 
     990    275.65533    163188.77    72.284411    72.284412    36.063704          120    18814.963    18103.782   -38141.868    826.21505   -1913.8328   -1384.5141    72.284411    62.600137    36.063704   -407.70793   -311846.18 
    1000    273.85292    163206.05    72.286963    72.286963    36.064977          120    18394.342    18492.171   -37911.552    451.11837   -2278.4438   -1357.5675    72.286963    62.602347    36.064977   -341.67985   -311847.46 
Loop time of 302.194 on 1 procs for 1000 steps with 14848 atoms

Performance: 0.286 ns/day, 83.943 hours/ns, 3.309 timesteps/s
100.0% CPU use with 1 MPI tasks x no OpenMP threads

MPI task timing breakdown:
Section |  min time  |  avg time  |  max time  |%varavg| %total
---------------------------------------------------------------
Pair    | 238.64     | 238.64     | 238.64     |   0.0 | 78.97
Bond    | 0.00017834 | 0.00017834 | 0.00017834 |   0.0 |  0.00
Kspace  | 10.894     | 10.894     | 10.894     |   0.0 |  3.60
Neigh   | 45.926     | 45.926     | 45.926     |   0.0 | 15.20
Comm    | 0.41858    | 0.41858    | 0.41858    |   0.0 |  0.14
Output  | 0.010567   | 0.010567   | 0.010567   |   0.0 |  0.00
Modify  | 6.1997     | 6.1997     | 6.1997     |   0.0 |  2.05
Other   |            | 0.1065     |            |       |  0.04

Nlocal:    14848 ave 14848 max 14848 min
Histogram: 1 0 0 0 0 0 0 0 0 0
Nghost:    46790 ave 46790 max 46790 min
Histogram: 1 0 0 0 0 0 0 0 0 0
Neighs:    1.00849e+07 ave 1.00849e+07 max 1.00849e+07 min
Histogram: 1 0 0 0 0 0 0 0 0 0

Total # of neighbors = 10084874
Ave neighs/atom = 679.208
Ave special neighs/atom = 0
Neighbor list builds = 166
Dangerous builds = 0
PPPM initialization ...
  using 12-bit tables for long-range coulomb (../kspace.cpp:321)
  G vector (1/distance) = 0.202607
  grid = 36 50 24
  stencil order = 5
  estimated absolute RMS force accuracy = 0.00099752
  estimated relative force accuracy = 6.9274e-05
  using double precision FFTs
  3d grid and FFT values/proc = 65395 43200
Setting up Verlet run ...
  Unit style    : metal
  Current step  : 0
  Time step     : 0.001
Per MPI rank memory allocation (min/avg/max) = 151.5 | 151.5 | 151.5 Mbytes
Step Temp Volume Cella Cellb Cellc CellGamma Pxx Pyy Pzz Pxy Pxz Pyz Lx Ly Lz Press PotEng 
       0    273.85292    163206.05    72.286963    72.286963    36.064977          120    18406.468    18504.551   -37905.259    451.78214   -2278.4367   -1357.4161    72.286963    62.602347    36.064977    -331.4133   -311847.29 
      10    273.59041    163222.37    72.289372    72.289372    36.066179          120    17876.002    18625.105   -36894.787    741.04542   -2220.7731   -1145.0294    72.289372    62.604433    36.066179   -131.22638    -311850.8 
      20    270.14851     163237.9    72.291664    72.291665    36.067323          120    18167.229    18869.355   -36013.623    613.24687   -2076.8339   -1367.3622    72.291664    62.606419    36.067323    340.98697   -311847.89 
      30    271.01812    163252.89    72.293878    72.293879    36.068427          120    18540.876    18336.902   -35419.608    787.70197   -1551.9769   -1569.1175    72.293878    62.608336    36.068427    486.05657   -311853.13 
      40    270.10074    163267.48    72.296031    72.296032    36.069501          120    18572.102    18384.183   -35826.496    121.05519   -1139.9996    -2050.836    72.296031      62.6102    36.069501    376.59635   -311854.84 
      50    270.25773     163281.6    72.298116    72.298116    36.070541          120    18747.659    17460.668   -36791.302     460.6177    -1090.865    -2080.615    72.298116    62.612006    36.070541   -194.32469   -311857.68 
      60    270.77356    163295.03    72.300097    72.300098     36.07153          120    19445.294     16822.16   -37182.032    322.53123   -972.06203   -1726.9875    72.300097    62.613722     36.07153   -304.85955   -311860.51 
      70    271.08555    163307.68    72.301964    72.301965    36.072461          120    19312.566    16676.223   -37830.739    314.97892   -1024.9402   -1651.5906    72.301964    62.615338    36.072461   -613.98336   -311863.02 
      80    269.61049    163319.44      72.3037      72.3037    36.073327          120    18550.987    16368.177    -38018.02    612.44747   -862.57817   -1550.4584      72.3037    62.616841    36.073327   -1032.9519   -311862.18 
      90    266.52474    163330.14    72.305279    72.305279    36.074115          120    18155.181    16074.643   -37816.283    1145.3947   -1319.3899    -1282.058    72.305279    62.618209    36.074115   -1195.4863   -311857.31 
     100    268.58829    163339.74    72.306696    72.306697    36.074822          120    17937.696     16810.16   -37494.918    1195.3927   -1698.2354   -1846.9136    72.306696    62.619436    36.074822   -915.68744   -311861.91 
     110    266.66025    163348.43    72.307978    72.307979    36.075462          120    17976.708    17268.762    -37427.08    768.75236   -2046.8738   -1443.3229    72.307978    62.620547    36.075462   -727.20353   -311858.43 
     120    268.44226    163356.34    72.309145    72.309145    36.076044          120    17763.301    16992.378   -37257.711    971.92542   -2300.9167   -1311.5534    72.309145    62.621557    36.076044   -834.01054    -311861.8 
     130    269.12943    163363.45    72.310194    72.310195    36.076567          120    18127.246    17030.643   -37896.349    681.24175   -2460.8425    -1100.476    72.310194    62.622466    36.076567   -912.82004   -311862.25 
     140    269.80434    163369.74    72.311122    72.311123     36.07703          120    17605.667     17394.75   -38918.857    1341.8333   -2189.9936    -995.3506    72.311122     62.62327     36.07703   -1306.1469   -311862.39 
     150    270.07429    163375.06    72.311907    72.311908    36.077422          120    17205.486    17472.144   -39468.135    1752.8545   -2204.6082   -1472.0588    72.311907    62.623949    36.077422   -1596.8348   -311861.78 
     160    270.00146    163379.32    72.312536    72.312536    36.077736          120    17590.869    18115.087   -38843.005     1353.041   -1541.5809   -1346.5475    72.312536    62.624494    36.077736   -1045.6829   -311859.87 
     170    272.47876    163382.85    72.313056    72.313056    36.077995          120    17882.211    17944.875   -37048.076    1309.5968   -1730.6694   -1165.0003    72.313056    62.624944    36.077995   -406.99644   -311862.59 
     180    273.13499    163385.95    72.313514    72.313514    36.078223          120    17243.647    17478.831    -36801.54     908.8307   -2004.3086   -1969.4746    72.313514     62.62534    36.078223   -693.02094   -311861.83 
     190    271.95723    163388.58    72.313901    72.313902    36.078417          120    17529.118    16999.673   -36151.094    1057.2657   -1799.2055   -2400.3448    72.313901    62.625676    36.078417   -540.76782   -311856.73 
     200    275.17196    163390.79    72.314228    72.314228     36.07858          120    18146.737    16878.069   -36412.758    1163.7031   -2356.3439   -1978.9648    72.314228    62.625959     36.07858   -462.65063   -311859.91 
     210     275.7217    163392.67    72.314505    72.314506    36.078718          120    18566.146    16486.171   -35863.286    1155.2248   -1649.4391   -1663.9648    72.314505    62.626199    36.078718   -270.32276   -311858.09 
     220    274.64501    163394.32    72.314749     72.31475     36.07884          120    18570.873    16902.456   -36116.461    1115.2393   -1775.4831   -1009.9689    72.314749     62.62641     36.07884   -214.37728   -311853.14 
     230    277.38001    163395.78    72.314963    72.314964    36.078947          120    18324.334    17651.435   -37258.677    1512.4566   -2100.0593   -395.98492    72.314963    62.626596    36.078947   -427.63604   -311854.37 
     240      277.763    163396.95    72.315137    72.315138    36.079033          120    19137.283    18145.379   -38386.049    1647.3149   -2013.7175   -1424.6661    72.315137    62.626746    36.079033   -367.79558   -311851.56 
     250    279.25948    163397.88    72.315274    72.315274    36.079102          120    20056.667    17471.644   -38095.441     1966.031    -1953.454    -1438.868    72.315274    62.626865    36.079102   -189.04324   -311851.21 
     260    278.79533    163398.65    72.315388    72.315388    36.079158          120    20029.935    16859.584   -37326.288    1800.9341   -2068.1267   -454.37883    72.315388    62.626963    36.079158   -145.58999   -311846.86 
     270    276.64562     163399.3    72.315484    72.315484    36.079206          120    19365.962     17233.66   -38042.679    2156.7891   -2078.7576   -978.58334    72.315484    62.627047    36.079206   -481.01921   -311839.25 
     280    279.89669    163399.68     72.31554     72.31554    36.079234          120    18631.774    17185.712   -37679.008    2062.6396   -2447.2547   -1352.3714     72.31554    62.627095    36.079234   -620.50746   -311841.72 
     290    279.97257    163399.71    72.315544    72.315545    36.079237          120    18401.583    17046.233   -37246.502    2244.9823   -2186.8895   -1350.7307    72.315544    62.627099    36.079237   -599.56228   -311838.79 
     300    281.70321    163399.37    72.315494    72.315494    36.079211          120    17511.585    16705.654   -37527.088    2014.2055   -2077.2085   -1547.3973    72.315494    62.627055    36.079211   -1103.2831   -311839.02 
     310    283.28542    163398.47    72.315361    72.315361    36.079145          120    17573.233    17546.098   -37834.106    1728.2297   -1442.7556   -2062.2323    72.315361     62.62694    36.079145   -904.92478   -311838.82 
     320    283.66647    163397.12    72.315161    72.315162    36.079046          120    17772.791    18375.515   -37624.154    2047.3496   -1570.8844   -2225.0978    72.315161    62.626768    36.079046   -491.94937   -311836.17 
     330    285.80666     163395.5    72.314923    72.314924    36.078927          120    17092.908    18009.287   -38198.607    1502.0914   -1399.4157   -2142.0251    72.314923    62.626561    36.078927   -1032.1375   -311838.12 
     340    285.46625    163393.41    72.314614    72.314615    36.078773          120    17532.717    17029.479   -38188.222    1323.1134   -1754.2452    -1698.079    72.314614    62.626294    36.078773   -1208.6753   -311834.62 
     350    284.45185    163390.79    72.314227    72.314228     36.07858          120    18172.494    17548.519     -37355.1    1538.4016   -1884.8545   -1719.0446    72.314227    62.625959     36.07858   -544.69572    -311830.4 
     360    289.52111    163387.93    72.313806    72.313807     36.07837          120    18010.589     17608.99   -37436.032    1472.2318    -2137.817   -2048.9871    72.313806    62.625594     36.07837    -605.4841   -311837.62 
     370    287.29544    163384.85    72.313351    72.313352    36.078142          120    17842.803    17200.072   -38031.029    792.96748    -2451.713   -1985.4097    72.313351      62.6252    36.078142    -996.0512   -311830.93 
     380    286.03887    163381.38     72.31284     72.31284    36.077887          120    17800.364    17776.057    -36975.42    562.94142   -1737.5019   -1674.4865     72.31284    62.624757    36.077887   -466.33296   -311827.47 
     390    288.45439    163377.76    72.312305    72.312306    36.077621          120    17852.142    17942.376   -36550.248    316.43559   -1041.5927   -1649.7935    72.312305    62.624294    36.077621   -251.91021   -311830.79 
     400    290.54222    163374.13     72.31177    72.311771    36.077354          120    18396.157    17756.557   -36558.017    780.81226   -819.49836   -1711.5887     72.31177     62.62383    36.077354   -135.10089   -311833.67 
     410    290.57818    163370.56    72.311242    72.311243     36.07709          120    17766.025    17465.932   -36023.174    1355.8797   -1407.1336   -1743.9865    72.311242    62.623374     36.07709   -263.73886   -311832.75 
     420    287.67535    163366.95     72.31071     72.31071    36.076825          120     17535.15    17239.938   -36885.801    1666.7941   -1223.2132   -1869.7692     72.31071    62.622912    36.076825   -703.57068   -311826.89 
     430    287.80553    163363.11    72.310144    72.310145    36.076542          120    18380.558    16833.308   -36531.915    1131.7066   -1390.4712   -966.46938    72.310144    62.622423    36.076542   -439.34987   -311828.01 
     440    288.07309    163359.18    72.309564    72.309564    36.076253          120    18567.857    17455.528    -36268.77    1302.1499   -1520.0886   -525.50864    72.309564     62.62192    36.076253    -81.79482   -311829.19 
     450    286.29153    163355.34    72.308998    72.308998     36.07597          120    18806.971    18144.599   -36198.785    1428.7582   -1822.7431   -1209.3782    72.308998    62.621429     36.07597    250.92842   -311825.98 
     460    288.32037    163351.81    72.308476    72.308477     36.07571          120    19853.476    18363.463    -35655.18    1874.2543   -2150.7198   -1750.9179    72.308476    62.620978     36.07571     853.9197   -311830.53 
     470    289.61404    163348.82    72.308035    72.308035     36.07549          120    19175.476    18454.552   -35954.624    1809.8293   -1952.4661   -1532.1432    72.308035    62.620596     36.07549    558.46775   -311834.29 
     480    286.35861    163346.22    72.307652    72.307653    36.075299          120    17865.303    17987.644   -36264.748    1469.9378   -2055.7514   -837.09443    72.307652    62.620264    36.075299   -137.26696   -311829.65 
     490     288.1519    163343.65    72.307273    72.307273     36.07511          120    17827.475    17689.949   -37199.218    1421.4652   -1337.5896   -523.25311    72.307273    62.619936     36.07511   -560.59805   -311835.14 
     500    286.33179    163340.89    72.306865    72.306866    36.074907          120    18665.394    17705.877   -37195.304    1520.3188   -1418.9227   -1098.4899    72.306865    62.619583    36.074907   -274.67766   -311834.13 
     510    286.42594    163338.06    72.306448    72.306448    36.074698          120     18908.15    17222.968   -36851.006    1083.6917   -2233.7353    -1741.933    72.306448    62.619221    36.074698   -239.96273   -311836.32 
     520    288.09529     163335.2    72.306025    72.306026    36.074487          120    18631.826    17151.553   -36707.213     1007.125   -1729.7742   -1291.3225    72.306025    62.618855    36.074487   -307.94493   -311842.29 
     530    286.28216    163332.28    72.305595    72.305596    36.074273          120     18055.65    17717.352   -36295.624    1758.0242   -1858.1035   -1015.7392    72.305595    62.618483    36.074273   -174.20733   -311842.24 
     540    285.50285    163329.38    72.305166    72.305167    36.074059          120    18510.892    17869.469   -36716.385    1946.0727   -1668.7187   -1323.2797    72.305166    62.618111    36.074059     -112.008   -311843.36 
     550    283.21986     163326.5    72.304742    72.304743    36.073847          120    18946.056     17924.86   -36943.305    1862.5957   -1762.4988   -1594.3548    72.304742    62.617744    36.073847   -24.129648   -311842.25 
     560    284.12124    163323.72    72.304332    72.304333    36.073643          120     19003.71    18299.221   -36485.194    1627.4911   -2179.2265   -1951.8797    72.304332    62.617389    36.073643    272.57891      -311847 
     570    279.98698    163321.15    72.303953    72.303953    36.073453          120    19216.412    17722.882   -36721.945    1815.9323   -1703.8353   -1501.5766    72.303953     62.61706    36.073453    72.449543   -311842.38 
     580    282.78635    163318.73    72.303595    72.303596    36.073275          120    19808.913    18090.821   -36923.595    2089.3887   -1431.6325   -806.12114    72.303595    62.616751    36.073275    325.37962   -311851.31 
     590    283.17668    163316.55    72.303274    72.303274    36.073115          120    19456.625    18650.706   -36823.507    1955.5313   -1898.5886   -959.20709    72.303274    62.616473    36.073115    427.94113   -311855.41 
     600    280.14719    163314.68    72.302998    72.302999    36.072977          120    19816.289     18266.08   -36720.595    1896.5618   -2520.4744   -1182.4517    72.302998    62.616234    36.072977    453.92458   -311853.14 
     610    278.60677    163313.16    72.302773    72.302774    36.072865          120    19208.271    19265.339   -35960.005    2171.0751   -2724.3394   -1103.8406    72.302773    62.616039    36.072865    837.86819   -311853.81 
     620    278.80928    163312.14    72.302623    72.302624     36.07279          120    19511.745    19738.441   -35763.334    1901.7613   -2675.6124   -1373.8614    72.302623    62.615909     36.07279    1162.2838   -311857.36 
     630    275.23415    163311.82    72.302575    72.302576    36.072766          120    21007.298    19768.842   -35200.626    1647.9285   -2464.6411   -830.85813    72.302575    62.615867    36.072766    1858.5042   -311853.81 
     640    276.54082    163312.48    72.302673    72.302674    36.072815          120    21428.687    18755.997   -34959.116    1812.6744   -1752.4746   -1549.6092    72.302673    62.615952    36.072815    1741.8561   -311858.57 
     650    277.51655    163314.07    72.302907    72.302907    36.072932          120    20919.778    18618.123   -35789.386    1496.4411   -1459.7289   -1839.6148    72.302907    62.616155    36.072932     1249.505   -311863.59 
     660    274.05393    163316.29    72.303236    72.303236    36.073096          120    20019.891    19391.653   -37052.724     1359.504   -1356.3837   -1934.7904    72.303236    62.616439    36.073096    786.27316   -311859.48 
     670      274.467    163318.88    72.303618    72.303618    36.073286          120    19713.116    19386.987   -37594.052    1665.3652   -1416.3501   -1546.3632    72.303618     62.61677    36.073286    502.01722   -311862.75 
     680    274.53206    163321.65    72.304026    72.304027     36.07349          120    18956.836    19286.543   -37508.947    1043.4414   -1366.2131   -689.21363    72.304026    62.617124     36.07349    244.81074   -311865.29 
     690    274.33067    163324.47    72.304442    72.304443    36.073697          120     18623.84    18890.125   -37940.278    1119.0401   -1456.6913   -746.47545    72.304442    62.617484    36.073697   -142.10427   -311867.18 
     700    275.67876    163327.13    72.304835    72.304835    36.073893          120    18725.908    18072.434   -37212.785    1014.4057   -1671.7375   -566.73102    72.304835    62.617824    36.073893   -138.14778   -311871.75 
     710    273.39934    163329.63    72.305204    72.305205    36.074078          120    18490.732    17626.246   -35907.432    752.36806    -1563.966   -626.85179    72.305204    62.618144    36.074078    69.848588   -311868.73 
     720    273.44109    163332.07    72.305564    72.305565    36.074257          120    18721.413    17815.999   -36353.929    1121.9333   -1827.4743   -365.22572    72.305564    62.618456    36.074257    61.161031   -311870.54 
     730    272.24661    163334.47    72.305918    72.305918    36.074434          120    18577.903    17687.923   -36710.116    1602.6863   -1339.4976   -879.03166    72.305918    62.618762    36.074434   -148.09678   -311868.93 
     740     273.2925    163336.66    72.306241    72.306242    36.074595          120     17751.31    16804.152   -38073.671    1304.9039   -1205.6536   -1033.0785    72.306241    62.619042    36.074595   -1172.7364   -311871.94 
     750    271.78815     163338.2    72.306468    72.306468    36.074708          120    17371.467    16690.144   -37673.264    1242.2732   -1114.2099   -1013.5807    72.306468    62.619239    36.074708   -1203.8842   -311869.66 
     760    274.22423    163339.04    72.306592    72.306592     36.07477          120      17800.5     16546.78   -37174.276    788.50602   -1125.0557   -2208.8616    72.306592    62.619346     36.07477   -942.33215   -311874.51 
     770     272.0708    163339.32    72.306634    72.306634    36.074791          120    18093.233    16674.024   -37228.114    1032.0828   -1809.0608   -1929.0144    72.306634    62.619382    36.074791   -820.28558   -311870.45 
     780    272.29469    163339.15    72.306609     72.30661    36.074779          120    18454.632    17384.971   -36887.145    1131.6421   -2092.0105   -1411.1787    72.306609    62.619361    36.074779   -349.18088   -311870.43 
     790    272.28826     163338.8    72.306557    72.306558    36.074753          120    18199.095    18035.299   -36137.252    1471.0107   -1805.2094   -984.74038    72.306557    62.619316    36.074753    32.380499   -311869.56 
     800    275.11645    163338.46    72.306507    72.306508    36.074728          120    18774.693    18314.337    -36805.41    1355.7003   -1116.5426     -1005.49    72.306507    62.619273    36.074728    94.540213   -311874.38 
     810     273.8489    163338.18    72.306465    72.306466    36.074707          120    18859.852    17909.128   -36796.105    1643.8847   -1397.1277   -787.18183    72.306465    62.619236    36.074707   -9.0417196   -311870.89 
     820    273.25892     163337.9    72.306424    72.306424    36.074686          120    18726.768    17674.733    -37469.43    1520.3873   -1497.7434   -341.71862    72.306424      62.6192    36.074686   -355.97616   -311867.97 
     830    276.20437    163337.42    72.306353    72.306353    36.074651          120    17691.025    17277.819   -37145.209    1142.2801   -1273.9912   -654.77716    72.306353    62.619139    36.074651   -725.45508   -311872.46 
     840    274.12821     163336.6    72.306233    72.306233    36.074591          120    18228.784    17785.669   -37148.642    765.34487   -2096.8337   -815.71037    72.306233    62.619035    36.074591   -378.06297   -311866.56 
     850    276.04095    163335.63    72.306089    72.306089    36.074519          120    19108.177    18744.536   -37141.001    568.84371   -1747.0934   -861.30282    72.306089     62.61891    36.074519    237.23757   -311868.21 
     860    275.15603    163334.78    72.305964    72.305965    36.074457          120    19074.391    19007.324   -37099.039    553.46679   -1662.5077   -1281.7504    72.305964    62.618802    36.074457    327.55841   -311864.38 
     870    275.43194    163334.12    72.305866    72.305866    36.074408          120    18987.796    17967.612   -37484.166    422.43055    -1560.653   -1507.4279    72.305866    62.618717    36.074408   -176.25258   -311862.59 
     880    277.29534    163333.41    72.305762    72.305762    36.074356          120    19203.271    18199.197   -37426.042    979.90855   -1924.2479   -775.36284    72.305762    62.618627    36.074356   -7.8580241   -311864.18 
     890    278.87934    163332.72     72.30566     72.30566    36.074305          120    19862.317    18499.725   -37369.765    1175.5596   -1778.9124   -104.47292     72.30566    62.618539    36.074305    330.75897   -311864.79 
     900    281.19034    163332.25     72.30559     72.30559     36.07427          120    20147.898    18487.925   -35802.274    1104.4545   -1414.6217   -509.10334     72.30559    62.618478     36.07427    944.51638   -311866.37 
     910    279.02133    163332.26    72.305591    72.305592    36.074271          120    19540.284    18442.081   -35986.708    1386.8838    -1702.939   -869.47495    72.305591     62.61848    36.074271    665.21905   -311859.69 
     920    279.22232    163332.64    72.305648    72.305648    36.074299          120     18761.25    18583.139   -36569.307    956.13409   -1725.5487   -685.91895    72.305648    62.618529    36.074299    258.36086   -311857.59 
     930    278.95915    163333.16    72.305725    72.305726    36.074338          120     18283.27    18421.416   -36767.014    1203.8591   -1158.4221   -480.78934    72.305725    62.618595    36.074338   -20.776004    -311854.8 
     940    279.91883    163333.67    72.305799      72.3058    36.074375          120    18315.185    17801.711   -36766.549    1618.9972   -852.18201   -759.20515    72.305799     62.61866    36.074375   -216.55088   -311853.93 
     950    282.49146    163334.09    72.305861    72.305862    36.074406          120    18802.801    17921.969   -35443.242    1552.9096   -885.63102    -572.6188    72.305861    62.618713    36.074406    427.17638   -311856.25 
     960    282.64613    163334.67    72.305948    72.305948    36.074449          120    18866.483    18373.783   -36419.457    1141.9198   -1120.6195   -853.85902    72.305948    62.618788    36.074449    273.60299   -311854.07 
     970     283.7537    163335.44    72.306061    72.306062    36.074505          120     19557.81    18888.891   -35824.319    1075.2887   -1792.8049   -1169.5713    72.306061    62.618887    36.074505    874.12733   -311853.59 
     980    284.68974    163336.66    72.306242    72.306242    36.074595          120    20403.094    19536.641   -35450.414    1268.5258   -1712.0494   -1354.7361    72.306242    62.619043    36.074595    1496.4402   -311853.58 
     990    285.01117    163338.64    72.306533    72.306533    36.074741          120    19787.266    19249.618   -34857.819    1181.0903   -1961.7654   -629.91262    72.306533    62.619295    36.074741    1393.0216   -311852.19 
    1000    285.27657    163341.33     72.30693    72.306931    36.074939          120    19650.008    19505.391   -34944.555    668.90372   -2077.8281   -1386.0696     72.30693    62.619639    36.074939    1403.6147   -311850.75 
    1010    286.65117    163344.66    72.307422    72.307423    36.075184          120    19322.312    18978.435   -36606.963    768.86678   -1454.2429   -1568.9628    72.307422    62.620065    36.075184    564.59499   -311851.48 
    1020    286.67635    163348.23    72.307949    72.307949    36.075447          120    19105.576    18778.486   -37790.757    1173.7247   -1434.9079    -1301.521    72.307949    62.620521    36.075447    31.101354   -311849.91 
    1030    288.09886    163351.73    72.308465    72.308465    36.075704          120    19059.908    18409.428   -37758.958    1365.4732   -772.54868   -1463.7522    72.308465    62.620968    36.075704   -96.540805   -311851.64 
    1040    282.67634    163355.13    72.308967    72.308967    36.075955          120     19977.69    19084.905   -36803.069    1905.5123   -329.97951   -1288.7487    72.308967    62.621403    36.075955    753.17524   -311840.59 
    1050     288.4925    163358.83    72.309513    72.309513    36.076227          120    19563.034    19780.679   -35661.577    1947.2817    -30.46634    -1238.577    72.309513    62.621876    36.076227    1227.3787   -311851.68 
    1060     284.3901    163363.05    72.310135    72.310135    36.076538          120    18907.006    19926.508   -36400.738    2031.0652   -296.45932   -1738.5517    72.310135    62.622414    36.076538    810.92538   -311843.72 
    1070    286.18589    163367.63     72.31081    72.310811    36.076875          120    19426.461    20208.053   -36246.099    2434.4061   -1476.4501   -1880.0348     72.31081    62.622999    36.076875    1129.4719   -311846.75 
    1080    285.54441    163372.68    72.311555    72.311556    36.077246          120    19917.058     19804.93    -36846.53    1785.3625   -1808.5157   -1075.5348    72.311555    62.623644    36.077246    958.48594   -311845.58 
    1090    289.64389    163378.06    72.312349     72.31235    36.077642          120    18872.312    19372.368   -37670.605    1808.1097   -1632.0592   -375.66569    72.312349    62.624332    36.077642    191.35836   -311853.76 
    1100    284.76014    163383.46    72.313146    72.313146     36.07804          120    19206.074    19694.795   -37455.497    2046.8281   -1504.4534    172.20042    72.313146    62.625022     36.07804    481.79048   -311845.01 
    1110    288.22892     163388.9    72.313949    72.313949    36.078441          120    18943.693    19438.274   -38706.778    2054.0303   -1905.0442   -950.77435    72.313949    62.625717    36.078441   -108.27047   -311852.61 
    1120    286.08135    163394.19    72.314729     72.31473     36.07883          120    19261.321    19627.689   -38244.675    1713.4002   -2548.1782   -1749.8667    72.314729    62.626393     36.07883    214.77842   -311849.33 
    1130    286.65762    163399.45    72.315505    72.315505    36.079217          120    19396.934    19285.686   -37446.313    1934.0438   -2290.0495   -1395.6828    72.315505    62.627065    36.079217    412.10256   -311851.96 
    1140    283.97935    163404.77     72.31629     72.31629    36.079608          120    18456.843    19048.143     -36787.4    2157.2283   -1943.5887   -728.10434     72.31629    62.627745    36.079608    239.19521    -311848.8 
    1150     284.8291    163410.07    72.317072    72.317072    36.079999          120    18617.928    18482.438   -37262.013    1353.8742   -1291.6476   -457.75055    72.317072    62.628422    36.079999   -53.882249    -311852.4 
    1160    287.34745    163415.21     72.31783     72.31783    36.080377          120    19442.098    17368.498   -37503.753    1043.5765   -1543.4937   -1330.7306     72.31783    62.629078    36.080377   -231.05213   -311859.32 
    1170    282.91082    163420.05    72.318544    72.318545    36.080733          120    18655.929    16945.176   -37972.698    1223.5126   -1450.9734   -1743.3805    72.318544    62.629697    36.080733   -790.53108   -311853.02 
    1180     282.6497    163424.34    72.319177    72.319177    36.081049          120    18302.879    17032.678   -38157.022     1702.235   -721.81647   -1604.0387    72.319177    62.630245    36.081049   -940.48816   -311855.25 
    1190    283.33355    163428.02     72.31972     72.31972     36.08132          120    18223.642    17714.559   -37329.715    1595.3541   -1247.0459   -1401.7765     72.31972    62.630715     36.08132   -463.83813    -311858.8 
    1200    283.09511    163431.33    72.320208    72.320209    36.081564          120    19050.634    18298.828   -37643.586    1732.3522   -1500.4722   -794.50883    72.320208    62.631138    36.081564    -98.04168   -311860.66 
    1210    281.48049    163434.47    72.320671    72.320672    36.081795          120     18924.84    18314.656    -37901.29    1694.1861   -1850.1844   -320.24325    72.320671    62.631539    36.081795   -220.59813   -311860.21 
    1220    279.33062    163437.43    72.321108    72.321108    36.082012          120    19059.778    18386.898   -37007.083    1429.4092    -2210.575   -1234.9574    72.321108    62.631917    36.082012    146.53096   -311858.14 
    1230    281.42168    163440.35    72.321539    72.321539    36.082227          120    18898.659    18281.767   -37146.391    1619.1833    -2134.511   -443.07621    72.321539     62.63229    36.082227    11.345052   -311864.42 
    1240    279.69113    163443.21    72.321961    72.321961    36.082438          120    19159.636    18105.635   -37343.503    1770.3235   -1883.6441   -353.39694    72.321961    62.632656    36.082438   -26.077325   -311863.43 
    1250    278.08629    163446.03    72.322376    72.322376    36.082645          120    19636.564    18593.786   -36346.995    1811.6043   -2128.3156   -928.55788    72.322376    62.633015    36.082645    627.78482   -311863.19 
    1260    279.36455    163449.06    72.322823    72.322824    36.082868          120     19593.84    17915.871   -36027.048    1487.8129   -2124.7203   -1445.3373    72.322823    62.633403    36.082868     494.2208   -311868.62 
    1270    278.95895    163452.28    72.323297    72.323298    36.083105          120     19503.45    17390.946   -36950.277    1264.0169   -1624.1473   -1437.1708    72.323297    62.633813    36.083105   -18.627319   -311870.07 
    1280    275.65625    163455.42    72.323761    72.323762    36.083336          120    19571.802    18097.086   -37894.622    834.69495   -1481.4182   -1118.3074    72.323761    62.634215    36.083336   -75.244607   -311866.08 
    1290    274.22244    163458.46     72.32421     72.32421     36.08356          120    19221.884     18791.32   -37006.924     740.2636   -1107.1103   -822.79363     72.32421    62.634604     36.08356    335.42674   -311865.64 
    1300    277.97474    163461.59    72.324671    72.324671     36.08379          120     19067.62    18530.464    -36476.46    1353.0242   -1785.4125   -642.83695    72.324671    62.635003     36.08379    373.87458      -311875 
    1310     277.1841    163464.83    72.325149    72.325149    36.084028          120    18869.779    18900.204   -37193.351    1537.1993   -1846.5182   -713.74411    72.325149    62.635417    36.084028    192.21054   -311874.74 
    1320    276.11272    163468.06    72.325625    72.325625    36.084266          120    18445.545    19009.073   -38396.448    1407.7869   -1446.4702    -852.2635    72.325625    62.635829    36.084266   -313.94323   -311874.01 
    1330    276.87522    163471.08     72.32607    72.326071    36.084488          120    18277.166    18835.964   -37046.127    1539.3362   -1698.1749   -1092.3559     72.32607    62.636215    36.084488    22.334296   -311877.06 
    1340     273.0586    163474.01    72.326503    72.326503    36.084704          120     18077.73    18975.288   -36989.347     1074.225   -1312.6394   -1262.4609    72.326503    62.636589    36.084704    21.223396   -311871.22 
    1350    272.90286    163476.88    72.326925    72.326926    36.084915          120    17984.744    18897.955   -36503.721    1273.8474   -1826.1811   -1219.9112    72.326925    62.636955    36.084915    126.32601   -311871.86 
    1360    274.27575    163479.75     72.32735     72.32735    36.085127          120    18076.622    19346.124    -35992.47    1044.6916   -1712.4858   -1278.8057     72.32735    62.637323    36.085127    476.75847   -311875.62 
    1370    274.93036    163482.76    72.327793    72.327794    36.085348          120    17709.361    18751.327   -36606.771    1778.8052   -577.05393   -1024.1398    72.327793    62.637707    36.085348   -48.694061   -311877.92 
    1380    272.99354    163485.69    72.328225    72.328226    36.085563          120    18182.873    17924.933   -37024.031    2509.5662   -785.94399   -918.85217    72.328225    62.638081    36.085563   -305.40836   -311874.36 
    1390    275.36118    163488.36    72.328619    72.328619     36.08576          120    18068.537    17358.909   -37852.161    1823.5116   -998.20554   -726.89971    72.328619    62.638422     36.08576   -808.23842   -311879.22 
    1400    273.61415    163490.55    72.328943    72.328943    36.085921          120     18375.86    17862.636   -37702.458    1837.2128   -729.00463   -920.89964    72.328943    62.638702    36.085921   -487.98752   -311875.77 
    1410    274.52434     163492.4    72.329215    72.329215    36.086057          120    18345.302    17641.934   -37285.999    1882.2962   -882.12391   -1211.9802    72.329215    62.638938    36.086057   -432.92063   -311877.33 
    1420    273.84954    163493.94    72.329442    72.329442     36.08617          120    18090.013    17234.844    -37570.92    1617.8918   -932.77643   -1101.9002    72.329442    62.639135     36.08617   -748.68756    -311875.6 
    1430    276.17642    163495.05    72.329605    72.329606    36.086252          120    18005.987    17549.137   -37586.365    1649.1172   -1308.9789   -1259.1723    72.329605    62.639276    36.086252   -677.08032   -311879.42 
    1440    274.39943    163495.78    72.329714    72.329714    36.086306          120    18272.307    17610.783   -36650.714    1841.1983   -905.57836   -1449.4714    72.329714     62.63937    36.086306   -255.87497   -311875.55 
    1450     274.4772    163496.31    72.329792    72.329792    36.086345          120    18188.503    17420.555   -37398.259    1677.0154   -981.82969   -1307.1849    72.329792    62.639438    36.086345   -596.40029   -311874.98 
    1460    274.25406     163496.5     72.32982     72.32982    36.086359          120    17860.767    16743.424   -37863.535    1643.3383   -1466.0343   -1226.0364     72.32982    62.639462    36.086359   -1086.4478   -311873.25 
    1470    273.23301    163496.08    72.329758    72.329759    36.086328          120    18007.644    16203.125   -38944.537    1433.9622   -1609.9742   -1211.7169    72.329758    62.639409    36.086328   -1577.9226   -311870.11 
    1480    275.87901    163494.83    72.329573    72.329574    36.086236          120    18041.713    16169.973   -38653.383    1373.0986    -1239.196   -1483.1816    72.329573    62.639248    36.086236   -1480.5659   -311873.35 
    1490    274.98101    163492.83    72.329278    72.329279    36.086089          120    18651.061     17473.05   -37965.854    1370.9155   -1313.2446   -1052.0972    72.329278    62.638993    36.086089   -613.91439   -311870.37 
    1500    277.99822    163490.51    72.328937    72.328937    36.085918          120    18738.639    17850.189   -37182.029    1537.1957   -776.01955   -849.19434    72.328937    62.638697    36.085918    -197.7339   -311874.09 
    1510    276.92788    163488.13    72.328585    72.328585    36.085743          120     18850.22      17938.1   -37607.248     1405.762   -1220.3089   -710.50513    72.328585    62.638392    36.085743   -272.97566   -311870.12 
    1520    279.08795    163485.63    72.328216    72.328217    36.085559          120    17895.094    18068.339   -37879.379    900.87176   -1152.2332   -682.27633    72.328216    62.638073    36.085559   -638.64859   -311871.79 
    1530    279.75685    163482.87     72.32781     72.32781    36.085356          120    18215.891     18059.52   -37486.802    627.85627   -1368.7467   -1143.3719     72.32781    62.637721    36.085356    -403.7972   -311870.75 
    1540     280.7301    163479.97    72.327382    72.327383    36.085143          120    18265.177     18443.29   -37222.191    510.04701   -2457.7314   -1156.0376    72.327382    62.637351    36.085143   -171.24126   -311870.79 
    1550    278.55679    163477.08    72.326956    72.326956     36.08493          120    19030.663    18740.613   -36826.219    858.99019   -2186.4607   -892.07881    72.326956    62.636982     36.08493    315.01866   -311863.75 
    1560    281.06472    163474.41    72.326562    72.326563    36.084734          120    19421.741    19324.271    -36662.26    1662.1244   -1933.1961   -938.50645    72.326562    62.636641    36.084734    694.58404   -311866.31 
    1570    281.92833    163472.18    72.326234    72.326234     36.08457          120    19501.357    19674.619   -36970.008    1544.9648   -2080.1311   -844.25144    72.326234    62.636356     36.08457    735.32274   -311865.66 
    1580    281.44234    163470.38    72.325967    72.325968    36.084437          120    18732.073    19526.474    -37699.15    1495.0544    -1576.598   -844.00405    72.325967    62.636126    36.084437     186.4656    -311862.3 
    1590    280.55221    163468.75    72.325727    72.325727    36.084317          120    18633.505    19128.206   -37401.944    1670.1299   -1592.6869   -990.39603    72.325727    62.635917    36.084317    119.92207   -311859.12 
    1600    282.71214    163467.21      72.3255      72.3255    36.084203          120    18573.911    18954.674   -36939.183    1655.9952    -2035.042   -464.69543      72.3255    62.635721    36.084203    196.46732   -311861.05 
    1610     283.4399    163465.83    72.325297    72.325298    36.084102          120    19120.175     18660.89   -35806.883     1306.821   -1528.6033   -170.43108    72.325297    62.635545    36.084102     658.0605   -311860.59 
    1620    283.09129    163464.84     72.32515     72.32515    36.084029          120    19124.187    18414.899   -36051.225    2066.3422    -2064.492     -644.949     72.32515    62.635418    36.084029    495.95365   -311858.24 
    1630     284.7633    163464.15    72.325049    72.325049    36.083978          120    18823.392    18821.008   -36320.447     1727.214   -2075.2585   -817.39442    72.325049     62.63533    36.083978    441.31761   -311859.83 
    1640    283.69952    163463.73    72.324987    72.324988    36.083948          120    18992.287    18599.733   -35916.567    1472.9034   -1717.4358   -1046.0849    72.324987    62.635277    36.083948    558.48453   -311856.21 
    1650    285.17778    163463.61    72.324969    72.324969    36.083939          120    19204.319    18225.555   -36856.478    1634.0311   -1652.1687   -766.46335    72.324969    62.635261    36.083939    191.13195   -311858.02 
    1660    285.92644     163463.6    72.324968    72.324968    36.083938          120    19649.571    17734.383   -37568.451    1753.0703    -1886.456   -209.01903    72.324968     62.63526    36.083938   -61.498961    -311858.4 
    1670    283.84233    163463.57    72.324963    72.324964    36.083936          120    19470.631    18253.087   -38072.824    1751.2969    -2084.956    68.185301    72.324963    62.635256    36.083936   -116.36879    -311853.7 
    1680    286.52825    163463.46    72.324947    72.324947    36.083928          120    19069.109    18246.333   -38122.754    1978.0418   -1750.9501    35.153901    72.324947    62.635242    36.083928   -269.10397   -311858.22 
    1690     285.9661    163463.22    72.324912    72.324912     36.08391          120     18768.51    18171.559   -37277.172    1518.2418   -1742.4437   -389.63194    72.324912    62.635212     36.08391   -112.36739    -311856.3 
    1700    284.41111    163462.93    72.324868    72.324869    36.083888          120    19537.041    18522.914   -37678.911    1433.3991   -1227.1747   -657.23196    72.324868    62.635174    36.083888    127.01456   -311853.66 
    1710    284.72074    163462.71    72.324836    72.324837    36.083873          120     19429.46     18629.22    -37222.73    1432.2025   -1363.1217   -819.06448    72.324836    62.635146    36.083873    278.65008   -311854.24 
    1720    284.84671    163462.65    72.324827    72.324827    36.083868          120    19224.405    18310.238   -36438.721    1018.9253   -1263.2017    -1448.091    72.324827    62.635138    36.083868    365.30748   -311854.75 
    1730    284.67856    163462.79    72.324848    72.324849    36.083879          120    19479.536    18395.406   -36249.644    774.00348    -1407.563   -1926.1403    72.324848    62.635157    36.083879    541.76622   -311854.99 
    1740    284.10679    163463.21     72.32491    72.324911    36.083909          120     19349.93    18380.162    -37048.42    613.67603   -1992.5481   -1245.5153     72.32491     62.63521    36.083909    227.22402    -311854.5 
    1750    285.90741    163463.75     72.32499     72.32499    36.083949          120    18910.534    19165.934    -37591.71    1045.8097   -1837.0111   -415.57578     72.32499    62.635279    36.083949    161.58616   -311858.58 
    1760    284.80359     163464.4    72.325086    72.325087    36.083997          120    20042.207    19086.085    -36881.32    1185.2668   -1458.5929    -531.7323    72.325086    62.635363    36.083997    748.99089   -311857.11 
    1770    284.68579    163465.43    72.325237    72.325238    36.084073          120    20771.728    18628.779   -36477.635     970.9077   -1377.6766   -809.36575    72.325237    62.635494    36.084073    974.29061    -311858.1 
    1780    286.08122    163466.95    72.325462    72.325462    36.084185          120     19817.86    18548.718   -36080.064    1253.6643   -872.46453   -231.39761    72.325462    62.635688    36.084185    762.17139   -311861.94 
    1790    284.23551    163468.84     72.32574     72.32574    36.084323          120    18888.062    17930.757   -36658.388    1458.7807   -551.96527    -26.06489     72.32574    62.635929    36.084323    53.477189   -311860.12 
    1800    282.04313    163470.72    72.326018    72.326018    36.084462          120    18350.239    17694.922    -36553.02     1646.017   -1342.2738    133.85314    72.326018    62.636169    36.084462   -169.28649   -311857.31 
    1810    283.18267    163472.47    72.326276    72.326276    36.084591          120    18374.005    18070.044   -36913.034    1623.7004   -1785.6286   -398.97767    72.326276    62.636393    36.084591    -156.3285   -311861.04 
    1820    283.31765    163474.12    72.326518    72.326519    36.084712          120    19102.663    18197.712   -36664.853    1829.8048   -2253.1719   -1435.9426    72.326518    62.636603    36.084712    211.84078   -311863.76 
    1830    282.19047    163475.84    72.326772    72.326773    36.084838          120    18993.463    18714.704   -35931.378    2090.1568   -2643.6438   -1086.3468    72.326772    62.636823    36.084838    592.26302   -311863.64 
    1840    280.04987    163477.82    72.327064    72.327065    36.084984          120    18776.284    19062.836   -36544.565    1854.6254   -2240.9239    -451.6835    72.327064    62.637076    36.084984    431.51819   -311861.79 
    1850    279.99476    163479.97    72.327382    72.327383    36.085143          120    18459.523     18585.81    -37001.93    1854.6639   -2391.0982   -1172.1773    72.327382    62.637351    36.085143    14.467811   -311863.87 
    1860     280.7361    163482.08    72.327693    72.327694    36.085298          120    18803.222    17743.978   -37625.418    1374.0864    -1402.081   -790.21229    72.327693    62.637621    36.085298    -359.4057   -311867.51 
    1870    280.09283    163483.97    72.327972    72.327972    36.085437          120    19022.532    17716.324   -37842.979    1697.1036   -1348.8582   -796.65022    72.327972    62.637862    36.085437   -368.04098   -311868.09 
    1880    280.58748    163485.62    72.328215    72.328216    36.085558          120    18956.376    17965.653   -38013.927    1687.7541   -986.73179   -358.22092    72.328215    62.638072    36.085558   -363.96612   -311870.81 
    1890    280.27718    163487.01     72.32842    72.328421    36.085661          120    18041.393     17898.56   -37732.333    963.90364   -1576.4671   -1074.8942     72.32842     62.63825    36.085661   -597.45993   -311872.26 
    1900    279.74946    163488.05    72.328573    72.328574    36.085737          120    17674.817    18167.463    -37599.95    1386.8662   -1233.1753   -1207.4096    72.328573    62.638383    36.085737   -585.88977   -311873.27 
    1910    277.99261    163488.79    72.328683    72.328684    36.085792          120    18303.504    18775.069   -36509.499    1800.3008   -1972.8154   -222.16433    72.328683    62.638478    36.085792    189.69127   -311872.01 
    1920    276.37888    163489.59      72.3288    72.328801     36.08585          120    19134.226    17809.484   -36483.807    1807.4269   -2602.0128   -381.57837      72.3288    62.638579     36.08585    153.30096   -311870.38 
    1930      275.754    163490.44    72.328927    72.328927    36.085913          120    19453.618    17437.068   -37200.568    2240.5906   -1956.2466   -933.69728    72.328927    62.638688    36.085913   -103.29415   -311870.67 
    1940    274.93725    163491.25    72.329045    72.329046    36.085972          120    19488.631    17926.634   -37070.604     2447.909   -2248.2083   -1249.5677    72.329045    62.638791    36.085972    114.88699   -311870.85 
    1950    275.93985    163492.08    72.329168    72.329169    36.086034          120    19364.989    18191.835   -37280.181    1598.0183   -1720.7592   -1116.3153    72.329168    62.638898    36.086034    92.214242   -311873.58 
    1960    278.13566    163492.95    72.329295    72.329296    36.086097          120    18811.533     18304.82   -36545.895    1844.3307    -1802.214   -1600.2008    72.329295    62.639008    36.086097    190.15282   -311879.44 
    1970    275.90949    163493.91    72.329438    72.329439    36.086168          120    18602.872    19031.809   -35738.785    2175.0233   -2185.0261   -433.35399    72.329438    62.639132    36.086168    631.96528   -311876.19 
    1980    276.40114     163495.2    72.329628    72.329629    36.086263          120    19688.866     18889.63   -35657.281    1542.1639    -2436.795    -151.2393    72.329628    62.639296    36.086263    973.73839   -311878.34 
    1990    278.48639    163496.98     72.32989     72.32989    36.086394          120    19874.314    18372.895   -35495.004    1327.0556   -2288.9665   -224.89542     72.32989    62.639522    36.086394    917.40164   -311882.79 
    2000    275.63865     163499.2    72.330218    72.330219    36.086558          120    19322.671    17825.698   -34972.726    1091.2339   -2363.6506   -897.05717    72.330218    62.639807    36.086558    725.21416   -311878.75 
    2010     275.8496    163501.78    72.330598    72.330599    36.086747          120     19054.06    17618.809   -35615.617    1375.4688   -1927.7999   -643.45379    72.330598    62.640136    36.086747    352.41747   -311878.92 
    2020    272.91929     163504.5    72.330999    72.330999    36.086947          120    19204.889    17586.795   -36667.016    1758.9899   -1865.9754   -425.99837    72.330999    62.640483    36.086947    41.556296   -311873.62 
    2030    275.17275    163507.16    72.331391    72.331392    36.087143          120    18819.879    17463.167   -37033.058    2003.4816   -1982.6923   -1152.0906    72.331391    62.640823    36.087143   -250.00398    -311878.2 
    2040    273.19653    163509.62    72.331755    72.331755    36.087324          120    19232.399    17228.025    -37647.54    1806.5137   -2015.8248   -463.41614    72.331755    62.641138    36.087324   -395.70548   -311874.29 
    2050    274.45719    163511.83    72.332081    72.332081    36.087487          120    20067.473     17215.41   -37457.723    1356.1751   -1699.0143   -656.45773    72.332081     62.64142    36.087487   -58.279957   -311876.76 
    2060    273.53948    163513.94    72.332392    72.332392    36.087642          120    20394.084    17039.988   -37194.016    1385.6318    -1274.137   -1124.8889    72.332392    62.641689    36.087642    80.018664    -311874.1 
    2070    277.18509    163516.05    72.332702    72.332703    36.087797          120    20269.323    17651.216    -37141.69    1518.0341   -1439.8913   -1376.6311    72.332702    62.641958    36.087797    259.61642   -311880.78 
    2080    276.30018    163518.25    72.333027    72.333028    36.087959          120    20463.443    17787.848   -36561.924    1013.6383   -2164.2271   -1140.9886    72.333027     62.64224    36.087959    563.12235   -311878.61 
    2090    274.79298    163520.72    72.333391    72.333392    36.088141          120    20268.015     18417.38   -36418.473    1179.1166   -2090.0497   -1285.0211    72.333391    62.642555    36.088141     755.6405   -311874.95 
    2100    276.29881    163523.53    72.333806    72.333806    36.088347          120    19735.597    19050.963   -37033.797    1380.5883   -1516.3968   -864.95032    72.333806    62.642914    36.088347    584.25426   -311876.96 
    2110    277.71756    163526.59    72.334257    72.334258    36.088573          120    19350.908    18371.167   -37192.461    1567.2481   -1644.7573   -928.45674    72.334257    62.643305    36.088573     176.5382   -311878.32 
    2120      276.841    163529.71    72.334717    72.334717    36.088802          120    18854.321    18118.328    -36953.61    1965.6316   -1723.5157    7.3496518    72.334717    62.643703    36.088802    6.3461503   -311875.36 
    2130    278.23556    163532.74    72.335163    72.335164    36.089025          120    18458.816    17839.875    -37995.17    2174.4256   -1120.7416    245.59421    72.335163     62.64409    36.089025    -565.4929   -311876.17 
    2140    278.11075    163535.42    72.335559     72.33556    36.089222          120    18587.304      17542.1   -37677.801    1973.4489   -697.50943   -638.50107    72.335559    62.644432    36.089222   -516.13244   -311873.85 
    2150      275.976    163537.78    72.335906    72.335907    36.089395          120    19008.383    17943.239   -37143.678    1535.9288   -1308.3875   -1035.3063    72.335906    62.644733    36.089395   -64.018911   -311868.43 
    2160    276.59407    163540.03    72.336238    72.336239    36.089561          120    19186.147    17711.775   -36540.568    1409.9852    -1408.521   -479.65792    72.336238     62.64502    36.089561    119.11819   -311867.54 
    2170    280.64262    163542.26    72.336567    72.336567    36.089725          120    18776.362    17625.612   -36529.403    1636.7518   -1869.4138   -705.26714    72.336567    62.645305    36.089725   -42.476054   -311873.87 
    2180    277.70396    163544.47    72.336892    72.336893    36.089887          120     19154.87    18020.729   -36075.704    1691.1715    -2378.072   -1129.7071    72.336892    62.645587    36.089887    366.63164   -311866.86 
    2190    282.48362    163546.79    72.337234    72.337235    36.090058          120    19275.998    17620.338   -36891.939    1651.8927   -2117.0603   -646.83883    72.337234    62.645883    36.090058    1.4654863   -311873.72 
    2200    280.50165    163549.09    72.337574    72.337575    36.090228          120    19044.211    17787.022    -36696.88    1252.5112   -2460.1968   -1189.2916    72.337574    62.646178    36.090228    44.784034   -311867.79 
    2210    279.51475    163551.37    72.337909     72.33791    36.090395          120    18777.402    17667.427    -36448.32    1533.9718   -1877.1724   -1425.9058    72.337909    62.646468    36.090395   -1.1635605   -311864.42 
    2220    279.75464    163553.58    72.338235    72.338236    36.090557          120    18751.963    17999.139   -37594.839    1260.1171    -1546.764   -861.34104    72.338235     62.64675    36.090557   -281.24564   -311863.09 
    2230    280.53395    163555.58    72.338531    72.338531    36.090705          120    18721.841    16732.501   -37434.757    1798.7227    -1664.037   -126.35024    72.338531    62.647006    36.090705   -660.13821    -311862.6 
    2240    281.28673    163557.17    72.338764    72.338765    36.090821          120     18613.07    16327.914   -37537.036    1943.8612   -1888.9178   -118.03368    72.338764    62.647208    36.090821   -865.35075   -311862.15 
    2250     285.7029    163558.28    72.338929     72.33893    36.090904          120    19393.095    16772.027   -36415.449    2149.4917     -2265.02   -568.89581    72.338929    62.647351    36.090904   -83.442049   -311869.12 
    2260     281.6579    163559.32    72.339083    72.339083     36.09098          120    19822.002    17554.017   -36230.507    1894.3888   -2128.4239   -1540.0674    72.339083    62.647484     36.09098    381.83715   -311859.39 
[...]
   99200    279.77023     163878.4    72.386093    72.386093    36.114434          120    20252.603    17494.058   -38678.004    459.12734   -1659.6805    351.02967    72.386093    62.688196    36.114434   -310.44768   -311918.55 
   99210    278.85709    163873.07    72.385308    72.385308    36.114042          120    20991.449     18130.69   -38357.793    574.10993   -1225.8418   -423.55023    72.385308    62.687516    36.114042    254.78179   -311916.09 
   99220    278.30164    163867.89    72.384545    72.384545    36.113662          120    20324.295    18822.908   -36882.805    704.49117   -1857.0201   -274.07269    72.384545    62.686855    36.113662    754.79916   -311914.82 
   99230     282.3241    163863.08    72.383837    72.383837    36.113309          120    19960.628    18204.674   -37020.949    1293.1331   -1986.3416   -435.09282    72.383837    62.686242    36.113309    381.45067   -311922.07 
   99240    279.95782    163858.54    72.383168    72.383169    36.112975          120    19863.984    18599.523    -37329.57    2401.2831   -1805.5315   -139.97318    72.383168    62.685663    36.112975    377.97919   -311917.49 
   99250    281.96613    163854.23    72.382534    72.382535    36.112659          120    19737.136    18604.963   -37282.053    1888.1065   -645.76951   -148.11814    72.382534    62.685114    36.112659    353.34866   -311920.75 
   99260    281.37302    163850.13     72.38193     72.38193    36.112357          120    19178.194    18214.778   -37535.152    1324.3244   -446.94607    166.01203     72.38193     62.68459    36.112357   -47.393555   -311919.08 
   99270      278.498    163846.02    72.381325    72.381326    36.112056          120    19491.786    17922.152    -37689.11     1323.988   -743.40687    92.912261    72.381325    62.684067    36.112056   -91.724119   -311913.24 
   99280    280.40982    163841.87    72.380714    72.380715    36.111751          120    20378.622    17477.146   -37948.626    628.73067   -1184.5115   -555.59076    72.380714    62.683538    36.111751   -30.952265   -311916.98 
   99290    280.20542    163837.69    72.380098    72.380098    36.111443          120    19973.452    17513.807    -38628.95    937.03863   -1112.1451   -497.77575    72.380098    62.683004    36.111443   -380.56344   -311916.08 
   99300    280.69276    163833.33    72.379456    72.379456    36.111123          120    20616.191    17212.219   -38453.732    1639.5657   -1071.2526    -336.8537    72.379456    62.682448    36.111123   -208.44055   -311917.13 
   99310    278.15844    163828.87    72.378799    72.378799    36.110795          120    20571.538    18002.982   -37884.077    1622.5505   -1628.1956   -506.89952    72.378799    62.681879    36.110795    230.14732   -311912.88 
   99320    279.70178    163824.53     72.37816    72.378161    36.110477          120    20459.985    18857.346   -37792.541    1122.0489   -1211.7319   -480.81667     72.37816    62.681326    36.110477    508.26326    -311915.3 
   99330    280.60344     163820.5    72.377567    72.377567    36.110181          120    21206.941    19151.416   -37790.357    1404.7462   -1737.2008    333.79356    72.377567    62.680812    36.110181    856.00009   -311917.11 
   99340     278.9569    163816.93    72.377041    72.377042    36.109918          120    20991.883    19262.853   -37516.979      933.282   -1038.4638    1108.4558    72.377041    62.680357    36.109918    912.58549   -311913.98 
   99350    281.32114    163813.89    72.376592    72.376593    36.109694          120     21012.03    18899.122    -37209.98    819.05284   -616.33652    594.31047    72.376592    62.679968    36.109694    900.39054    -311918.4 
   99360     281.8146    163811.37    72.376222    72.376222     36.10951          120    21665.976    18542.284   -36806.512    1090.1543   -1141.6716   -244.55964    72.376222    62.679647     36.10951    1133.9157   -311919.05 
   99370    277.95545    163809.48    72.375944    72.375944    36.109371          120    21866.093    18566.231   -37212.126    1077.7349   -1181.1892    185.45937    72.375944    62.679407    36.109371    1073.3995   -311911.26 
   99380    278.85136     163808.2    72.375755    72.375756    36.109277          120      21999.2    18908.073   -38035.182      1359.76   -534.29242    34.885175    72.375755    62.679243    36.109277    957.36355   -311912.96 
   99390    282.56137    163807.47    72.375648    72.375648    36.109223          120    22369.366     19043.59   -37587.146    1260.9901   -272.41923   -318.14197    72.375648     62.67915    36.109223    1275.2699   -311920.62 
   99400    281.33462    163807.45    72.375645    72.375645    36.109221          120    21754.079    19355.968   -36684.974    857.66317   -480.98071    -446.7721    72.375645    62.679147    36.109221    1475.0242   -311918.23 
   99410     277.8403    163808.27    72.375765    72.375765    36.109281          120    21858.209     18719.12   -35882.539    136.33843   -690.33316   -493.96524    72.375765    62.679252    36.109281    1564.9301    -311910.9 
   99420    283.36766    163809.93    72.376011    72.376011    36.109404          120    22109.611    18777.515   -36811.035    1073.8688   -1419.1371   -237.47808    72.376011    62.679464    36.109404    1358.6973   -311921.68 
   99430    280.32748    163812.36    72.376368    72.376368    36.109582          120    22035.335    18277.371   -36821.015    1465.4538   -1387.3795    344.27055    72.376368    62.679774    36.109582    1163.8971   -311915.84 
   99440    278.93123    163815.42    72.376818    72.376819    36.109807          120    20942.077    18149.923   -37323.542    1385.5726   -1798.4439    799.59627    72.376818    62.680164    36.109807    589.48604   -311913.48 
   99450    282.49879     163818.8    72.377317    72.377317    36.110056          120    19835.038    18278.615   -38041.151    1079.2215   -1584.0325    277.38128    72.377317    62.680595    36.110056    24.167348   -311919.77 
   99460    279.34953    163822.26    72.377825    72.377826    36.110309          120    20420.356    17945.786   -37570.405    612.22688   -1507.2061     503.4069    72.377825    62.681036    36.110309    265.24559   -311913.95 
   99470    279.06135    163825.79    72.378346    72.378347    36.110569          120    19881.908    17997.514   -38198.436    640.62024   -1004.2649    518.11986    72.378346    62.681487    36.110569   -106.33828   -311913.76 
   99480    282.65842     163829.3    72.378863    72.378863    36.110827          120    20162.267    17904.243   -37464.575    870.79055   -767.99779    -171.0676    72.378863    62.681934    36.110827    200.64506   -311920.51 
   99490    278.17084    163832.88    72.379389    72.379389     36.11109          120    20236.961    17009.909   -37610.793    1353.6812   -1025.8474     264.5057    72.379389     62.68239     36.11109   -121.30761   -311912.27 
   99500    279.26059    163836.39    72.379906    72.379907    36.111348          120    19384.861    17030.828   -36973.499     1013.957   -707.52779    150.71294    72.379906    62.682838    36.111348    -185.9368   -311914.56 
   99510    279.76579    163839.79    72.380407    72.380407    36.111597          120    19828.567    16995.053   -37276.911    946.69022   -1443.2833   -44.447607    72.380407    62.683272    36.111597   -151.09703   -311916.03 
   99520    279.65684    163843.07     72.38089     72.38089    36.111838          120    19320.873    16833.848    -38010.18    948.13081   -1122.4359   -200.20819     72.38089     62.68369    36.111838   -618.48648   -311916.46 
   99530    281.11329    163846.05    72.381329    72.381329    36.112057          120    19875.224    16935.811   -37209.378    668.33121   -1121.1623    422.67626    72.381329     62.68407    36.112057   -132.78114   -311919.27 
   99540    280.61887    163848.96    72.381758    72.381759    36.112272          120    20615.559    17952.313   -37039.368    1208.7124   -973.09108    609.76348    72.381758    62.684442    36.112272    509.50123   -311918.73 
   99550    279.08224    163852.16    72.382229     72.38223    36.112506          120    20809.863    18185.232   -36296.418     960.2789   -1479.5264    -229.1429    72.382229     62.68485    36.112506    899.55899   -311915.42 
   99560    279.99183    163855.79    72.382763    72.382764    36.112773          120    19894.158    17874.538   -37402.601    910.06926   -1524.1331    195.56898    72.382763    62.685312    36.112773    122.03145   -311916.82 
   99570    280.35475    163859.52    72.383313    72.383313    36.113047          120    19543.441    18121.994   -37602.078    1495.6255   -1724.9036    1539.0881    72.383313    62.685788    36.113047    21.118811   -311917.46 
   99580    279.62423    163863.24     72.38386     72.38386     36.11332          120    19090.947    17977.413   -37499.334    956.51481   -1105.7283    1093.8826     72.38386    62.686262     36.11332   -143.65829   -311916.56 
   99590    280.72625    163866.92    72.384402    72.384402    36.113591          120    19809.313    18217.741   -36780.868    984.62458   -183.09005     569.8742    72.384402    62.686731    36.113591     415.3955   -311918.94 
   99600    276.67489    163870.81    72.384975    72.384976    36.113877          120    21038.934    18548.285   -37014.532    1147.3525    74.482631   -132.86783    72.384975    62.687228    36.113877    857.56227   -311910.77 
   99610    280.44736    163875.15    72.385614    72.385615    36.114196          120    21161.859    18327.071   -37213.137     1123.259   -571.53655   -270.93966    72.385614    62.687782    36.114196    758.59758   -311918.14 
   99620     278.9791    163879.91    72.386315    72.386316    36.114545          120    21031.145    18440.551   -37906.117    1294.5282    -1701.307   -111.54246    72.386315    62.688388    36.114545     521.8597   -311916.01 
   99630    279.99523    163884.91    72.387051    72.387052    36.114912          120    19517.286    18640.224   -38835.598    1040.3958   -2100.0311    -794.4198    72.387051    62.689026    36.114912   -226.02937   -311918.01 
   99640    280.42524     163889.8     72.38777    72.387771    36.115271          120    19051.553    18387.934   -39397.838    825.86244   -1424.1666    184.06069     72.38777    62.689649    36.115271   -652.78352    -311918.2 
   99650    280.96175    163894.33    72.388438    72.388439    36.115604          120    19285.108    18336.564   -39007.935    663.60478   -818.61566    29.474215    72.388438    62.690227    36.115604   -462.08726   -311919.64 
   99660    282.13831     163898.6    72.389067    72.389068    36.115918          120    19807.474     18228.71   -38316.015    952.38556   -969.68657    163.25238    72.389067    62.690772    36.115918   -93.276942   -311921.94 
   99670    279.08569    163902.82    72.389688    72.389689    36.116228          120    20130.874    18317.309   -37789.981     1522.966   -1040.0316    307.21967    72.389688    62.691309    36.116228    219.40088   -311916.09 
   99680    280.08375    163907.13    72.390322    72.390322    36.116544          120    20210.648    18128.571   -38121.634    1449.6239    -1585.813   -35.311606    72.390322    62.691858    36.116544    72.528625   -311918.49 
   99690    277.09917    163911.44    72.390956    72.390957    36.116861          120    19337.031    17829.293   -38555.724    1341.8494    -1439.305     610.0774    72.390956    62.692408    36.116861   -463.13326   -311912.86 
   99700    279.49148    163915.47    72.391551    72.391551    36.117157          120    18419.459    17901.948   -39114.885    1017.9221   -1213.1626    283.31711    72.391551    62.692922    36.117157   -931.15909   -311918.19 
   99710    277.87866       163919     72.39207     72.39207    36.117416          120    18636.441    17915.986   -39141.337     380.6836    -1778.622   -490.72125     72.39207    62.693372    36.117416   -862.96994   -311916.07 
   99720    278.21875    163922.04    72.392518    72.392518     36.11764          120     18956.07    18179.795   -38703.769    98.538613   -1855.3309    -749.9598    72.392518     62.69376     36.11764   -522.63455   -311917.05 
   99730    278.55573    163924.75    72.392916    72.392917    36.117839          120    19475.294    18160.491   -39136.297    402.50322    -1241.303   -516.23692    72.392916    62.694105    36.117839   -500.17049    -311918.2 
   99740    277.36841    163927.16    72.393271    72.393272    36.118016          120    19997.231    17311.358   -38710.987    863.17932   -581.54859   -510.13744    72.393271    62.694413    36.118016   -467.46634   -311916.24 
   99750    277.87949    163929.34    72.393592    72.393593    36.118176          120    21100.484     17832.39    -38894.17    1474.4853   -856.28587   -497.82867    72.393592     62.69469    36.118176     12.90106   -311917.87 
   99760    279.02825     163931.5    72.393909     72.39391    36.118334          120    20998.224    17706.932   -38711.542    1081.8943   -609.51241   -120.04513    72.393909    62.694965    36.118334   -2.1285921   -311920.04 
   99770    277.31653    163933.61     72.39422    72.394221    36.118489          120    20288.607    16987.779   -38966.373    1231.5061   -793.74097    130.51418     72.39422    62.695234    36.118489   -563.32922   -311916.43 
   99780    277.49315    163935.42    72.394487    72.394488    36.118622          120    19776.237     16874.63   -38974.448    1314.3135   -1268.9789    21.387553    72.394487    62.695466    36.118622   -774.52695   -311917.09 
   99790    278.17253    163936.81    72.394691    72.394691    36.118724          120     19365.78    16723.396   -38479.249    922.57127    -1480.695    377.68133    72.394691    62.695642    36.118724   -796.69072   -311918.65 
   99800    278.65798    163937.77    72.394833    72.394834    36.118795          120    19430.569    17254.619   -37639.253    442.62744   -2011.3079      346.261    72.394833    62.695765    36.118795   -318.02159   -311919.74 
   99810    278.25322    163938.54    72.394945    72.394946    36.118851          120    19827.865    17694.085   -37732.773    1008.2015   -1419.1081    384.49658    72.394945    62.695863    36.118851   -70.274053   -311918.68 
   99820    278.10931    163939.27    72.395053    72.395054    36.118905          120     20385.36    17530.567   -37252.952    1291.8925   -964.58587    140.58933    72.395053    62.695956    36.118905    220.99162   -311918.08 
   99830    280.51711    163940.06     72.39517     72.39517    36.118963          120    20005.259    16380.943   -37714.134    1420.8942   -1145.5844   -216.65757     72.39517    62.696057    36.118963     -442.644   -311922.91 
   99840     278.3036    163940.61     72.39525    72.395251    36.119003          120    19262.838    16501.172    -39038.93    1308.2416   -1147.9294   -363.96794     72.39525    62.696126    36.119003   -1091.6402   -311919.08 
   99850    280.54224    163940.55    72.395242    72.395242    36.118999          120    18776.256    16834.649   -40226.397    1157.1986   -813.89302   -309.32951    72.395242    62.696119    36.118999   -1538.4974   -311923.21 
   99860     277.8488    163939.68    72.395115    72.395115    36.118935          120    19458.338    17560.894   -40026.845    1077.4837    -542.6529   -598.08329    72.395115    62.696009    36.118935   -1002.5379   -311917.37 
   99870    277.52328    163938.24    72.394902    72.394902    36.118829          120    19730.984    17360.857   -39277.505    818.33496   -842.54989   -429.82032    72.394902    62.695825    36.118829   -728.55477   -311915.96 
   99880    281.84818    163936.39     72.39463    72.394631    36.118694          120    19491.084    17852.703   -38915.134    1086.4477   -1009.7414    147.44001     72.39463    62.695589    36.118694   -523.78253      -311924 
   99890    277.92059    163934.27    72.394318    72.394318    36.118538          120    19464.342    17605.176    -38283.13    888.79063   -749.06899    868.98949    72.394318    62.695319    36.118538   -404.53738   -311916.02 
   99900    280.55823     163931.9    72.393969     72.39397    36.118364          120    19326.371    17077.069    -38789.33    1424.4701   -1060.2439    709.14598    72.393969    62.695017    36.118364   -795.29686   -311920.26 
   99910    276.62508    163929.11    72.393558    72.393558    36.118159          120    19190.819    16932.678   -38909.755    1559.4426   -847.12806    402.89906    72.393558    62.694661    36.118159   -928.75276   -311912.13 
   99920    278.58532    163925.81    72.393072    72.393073    36.117916          120    19360.386    17281.669   -38509.502    869.18304   -763.27379      457.309    72.393072     62.69424    36.117916    -622.4823   -311915.06 
   99930    280.28594    163922.16    72.392535    72.392536    36.117648          120    19734.033    17428.745   -38044.086    522.19921   -1139.7798    326.68893    72.392535    62.693775    36.117648   -293.76913   -311917.49 
   99940     280.5762    163918.35    72.391974    72.391975    36.117368          120    19498.156    17909.973    -37752.06    420.14111   -895.80299    482.39607    72.391974    62.693289    36.117368   -114.64344   -311917.85 
   99950    281.18958    163914.53    72.391412    72.391412    36.117088          120    20364.002    18264.608   -36427.997    467.87567   -803.72529    371.11137    72.391412    62.692802    36.117088    733.53759   -311917.75 
   99960    280.02018    163911.08    72.390903    72.390904    36.116834          120    20617.982    18171.524   -36175.203    668.78761   -621.35417   -465.95944    72.390903    62.692362    36.116834    871.43433   -311914.71 
   99970    280.95557    163908.13    72.390469     72.39047    36.116618          120    20569.769    17994.024   -35945.643    1049.5059   -539.19333   -422.21283    72.390469    62.691986    36.116618     872.7168   -311916.18 
   99980    279.30856    163905.62      72.3901      72.3901    36.116433          120    20104.188    17645.424   -38065.928    1277.2636   -489.76464    44.061901      72.3901    62.691666    36.116433   -105.43873      -311912 
   99990    283.44368    163903.07    72.389725    72.389725    36.116246          120     19491.94    16571.822   -39070.738    1479.1783   -814.99213   -421.89515    72.389725    62.691341    36.116246   -1002.3254   -311919.31 
  100000    277.62919    163900.03    72.389277    72.389277    36.116023          120    19712.577    16899.925   -39141.486    1131.6551   -1970.5677   -47.676731    72.389277    62.690953    36.116023   -842.99458   -311907.75 
Loop time of 29946.1 on 1 procs for 100000 steps with 14848 atoms

Performance: 0.289 ns/day, 83.184 hours/ns, 3.339 timesteps/s
100.0% CPU use with 1 MPI tasks x no OpenMP threads

MPI task timing breakdown:
Section |  min time  |  avg time  |  max time  |%varavg| %total
---------------------------------------------------------------
Pair    | 24580      | 24580      | 24580      |   0.0 | 82.08
Bond    | 0.021094   | 0.021094   | 0.021094   |   0.0 |  0.00
Kspace  | 1134.8     | 1134.8     | 1134.8     |   0.0 |  3.79
Neigh   | 3542.3     | 3542.3     | 3542.3     |   0.0 | 11.83
Comm    | 42.307     | 42.307     | 42.307     |   0.0 |  0.14
Output  | 1.0666     | 1.0666     | 1.0666     |   0.0 |  0.00
Modify  | 635.2      | 635.2      | 635.2      |   0.0 |  2.12
Other   |            | 10.9       |            |       |  0.04

Nlocal:    14848 ave 14848 max 14848 min
Histogram: 1 0 0 0 0 0 0 0 0 0
Nghost:    46703 ave 46703 max 46703 min
Histogram: 1 0 0 0 0 0 0 0 0 0
Neighs:    1.00402e+07 ave 1.00402e+07 max 1.00402e+07 min
Histogram: 1 0 0 0 0 0 0 0 0 0

Total # of neighbors = 10040170
Ave neighs/atom = 676.197
Ave special neighs/atom = 0
Neighbor list builds = 12641
Dangerous builds = 0
 
All done!
Total wall time: 8:24:09
