LAMMPS (16 Mar 2018)
Reading data file ...
  triclinic box = (0 0 0) to (9.208 7.97436 18.376) with tilt (-4.604 0 0)
  1 by 1 by 1 MPI processor grid
  reading atoms ...
  116 atoms
Finding 1-2 1-3 1-4 neighbors ...
  special bond factors lj:   0          0          0         
  special bond factors coul: 0          0          0         
  0 = max # of 1-2 neighbors
  0 = max # of 1-3 neighbors
  0 = max # of 1-4 neighbors
  1 = max # of special neighbors
Replicating atoms ...
  triclinic box = (0 0 0) to (73.664 63.7949 36.752) with tilt (-36.832 0 0)
  1 by 1 by 1 MPI processor grid
  14848 atoms
Finding 1-2 1-3 1-4 neighbors ...
  special bond factors lj:   0          0          0         
  special bond factors coul: 0          0          0         
  0 = max # of 1-2 neighbors
  0 = max # of 1-3 neighbors
  0 = max # of 1-4 neighbors
  1 = max # of special neighbors
  Time spent = 0.00335193 secs
PPPM initialization ...
WARNING: System is not charge neutral, net charge = -0.2048 (../kspace.cpp:302)
  using 12-bit tables for long-range coulomb (../kspace.cpp:321)
  G vector (1/distance) = 0.201681
  grid = 36 50 24
  stencil order = 5
  estimated absolute RMS force accuracy = 0.00105653
  estimated relative force accuracy = 7.33721e-05
  using double precision FFTs
  3d grid and FFT values/proc = 65395 43200
Neighbor list info ...
  update every 1 steps, delay 0 steps, check yes
  max neighbors/atom: 2000, page size: 100000
  master list distance cutoff = 15.3
  ghost atom cutoff = 15.3
  binsize = 7.65, bins = 15 9 5
  3 neighbor lists, perpetual/occasional/extra = 3 0 0
  (1) pair morse, perpetual
      attributes: half, newton on
      pair build: half/bin/newton/tri
      stencil: half/bin/3d/newton/tri
      bin: standard
  (2) pair buck, perpetual, copy from (1)
      attributes: half, newton on
      pair build: copy
      stencil: none
      bin: none
  (3) pair lj/cut/coul/long, perpetual, copy from (1)
      attributes: half, newton on
      pair build: copy
      stencil: none
      bin: none
Setting up Verlet run ...
  Unit style    : metal
  Current step  : 0
  Time step     : 0.001
Per MPI rank memory allocation (min/avg/max) = 145.7 | 145.7 | 145.7 Mbytes
Step Temp Volume Cella Cellb Cellc CellGamma Pxx Pyy Pzz Pxy Pxz Pyz Lx Ly Lz Press PotEng 
       0          210    172711.88       73.664    73.664001       36.752          120   -209013.97   -209045.54   -280029.04    17.834737    -5.342905    7.1410343       73.664    63.794896       36.752   -232696.18   -309191.56 
      10    317.23545    172615.48    73.650293    73.650293    36.745161          120    -211620.8   -211705.88   -258921.53    101.79784   -17.064836   -151.68889    73.650293    63.783025    36.745161   -227416.07   -309435.91 
      20    577.14369    172332.26    73.609989     73.60999    36.725053          120   -209878.58   -209501.76   -199871.67    25.120591   -236.01422   -330.31925    73.609989    63.748121    36.725053   -206417.34   -309990.63 
      30    568.80552    171887.56    73.546619    73.546619    36.693437          120   -185328.75   -184847.89   -119938.73   -210.04829   -777.13475   -406.05023    73.546619    63.693241    36.693437   -163371.79   -310051.03 
      40    348.82508    171336.93    73.468001    73.468001    36.654213          120   -142895.73   -142936.55   -40543.687   -525.96109   -1133.6383   -451.23661    73.468001    63.625156    36.654213   -108791.99   -309690.33 
      50    430.40522    170755.73    73.384835    73.384836    36.612721          120   -100481.58    -100891.6   -5416.6335   -639.82662    -1200.521   -604.08845    73.384835    63.553132    36.612721   -68929.937   -309884.88 
      60    740.15589    170205.51    73.305929     73.30593    36.573353          120   -71996.741   -71894.709   -40470.137   -593.55452   -2102.7735   -450.90439    73.305929    63.484797    36.573353   -61453.863   -310520.62 
      70    926.71221    169709.76    73.234688    73.234688     36.53781          120   -52464.149   -52110.519   -102950.67    -1480.103   -2431.7686   -394.49101    73.234688    63.423101     36.53781   -69175.111    -310952.2 
      80    782.88685     169264.7    73.170612    73.170613    36.505842          120   -40257.649   -40789.271   -148507.23   -1731.2679   -2976.1349    129.97819    73.170612     63.36761    36.505842   -76518.051   -310754.94 
      90    508.47822    168857.35    73.111868    73.111869    36.476534          120   -33925.519   -34563.798   -163638.84   -1942.1322   -3492.9327   -83.964109    73.111868    63.316736    36.476534   -77376.053   -310288.16 
     100    528.32706    168476.88    73.056916    73.056916    36.449117          120   -19197.762   -19238.334   -143841.61   -1704.6886   -3254.7939   -599.65835    73.056916    63.269145    36.449117   -60759.234   -310372.16 
     110    702.24829    168123.45    73.005794    73.005794    36.423612          120   -43.863571   -142.40058   -100974.73   -1819.4508   -2537.7659   -695.46127    73.005794    63.224873    36.423612   -33720.332   -310760.07 
     120    700.22065    167804.32    72.959571    72.959572    36.400551          120    10663.652    10744.741    -49679.36   -1776.7056   -2113.9551   -1256.3482    72.959571    63.184843    36.400551   -9423.6554   -310816.85 
     130    593.67274    167525.16     72.91909     72.91909    36.380354          120    9015.3751    10010.732   -9304.5218   -1789.1994   -2078.0798   -1225.2437     72.91909    63.149785    36.380354    3240.5284   -310664.22 
     140    548.03335    167284.92    72.884216    72.884217    36.362955          120    4086.2369    4081.5936    3044.8923   -1295.9018    -1944.633   -1014.6647    72.884216    63.119584    36.362955    3737.5743   -310618.11 
     150     604.0626    167075.59    72.853803    72.853804    36.347782          120    -3536.223   -2500.6013   -20631.062   -1859.8712    -1445.847   -516.20716    72.853803    63.093245    36.347782   -8889.2955   -310769.11 
     160    664.04801    166882.52     72.82573    72.825731    36.333775          120   -14147.025   -12345.184   -57795.303    -1607.811   -1564.2995   -434.07477     72.82573    63.068933    36.333775   -28095.837      -310939 
     170    640.03927    166689.35     72.79762     72.79762    36.319751          120   -19008.213   -16803.556   -88025.699   -624.13942   -2243.8354   -730.60814     72.79762    63.044589    36.319751   -41279.156   -310952.88 
     180    559.53132    166485.98    72.768002    72.768003    36.304974          120   -15396.807    -13105.83    -104563.5   -279.46994   -2343.7099   -790.08767    72.768002    63.018939    36.304974    -44355.38   -310853.44 
     190    537.85632    166270.92    72.736655    72.736655    36.289335          120   -10216.002   -8046.8388   -101620.57    251.27055   -2039.2911   -535.71437    72.736655    62.991792    36.289335   -39961.136    -310860.3 
     200    576.80919    166048.79     72.70425     72.70425    36.273167          120   -5718.7932   -4237.5651     -81601.3   -372.94542   -2154.6378   -380.13848     72.70425    62.963728    36.273167   -30519.219   -310984.45 
     210    580.58153    165827.62    72.671956    72.671957    36.257056          120   -1324.7855    475.25845   -57278.408   -1006.8214   -2155.0803   -335.45155    72.671956    62.935761    36.257056   -19375.978   -311043.68 
     220    548.79246    165615.91    72.641016    72.641017    36.241619          120    2576.2947    4228.2099   -37544.249   -761.84057   -1776.3305   -1332.3556    72.641016    62.908966    36.241619   -10246.581    -311030.6 
     230    527.86298    165419.45    72.612282    72.612282    36.227283          120    3613.6472    4130.5194   -30707.326   -507.56036   -1267.8553    -1767.128    72.612282    62.884081    36.227283   -7654.3866    -311034.8 
     240    530.60933    165238.82    72.585843    72.585843    36.214092          120    1800.2681    2047.2497   -36270.449   -237.42786   -1868.2027   -2092.6114    72.585843    62.861184    36.214092   -10807.644   -311083.59 
     250    545.53274    165070.26    72.561153    72.561153    36.201774          120   -543.86759   -587.76041   -50904.849    2.8478557   -1770.6216    -2217.899    72.561153    62.839802    36.201774   -17345.492   -311158.37 
     260    537.29607    164908.08    72.537382    72.537382    36.189914          120   -845.08957   -2058.4216    -65734.57   -191.89299   -1779.6513   -2292.1114    72.537382    62.819216    36.189914    -22879.36   -311189.98 
     270    509.01488     164747.8    72.513873    72.513873    36.178185          120   -42.832262   -1523.4094    -73982.64   -778.69497   -1501.1865   -1508.1939    72.513873    62.798857    36.178185   -25182.961   -311181.93 
     280    490.22315    164587.64    72.490367    72.490368    36.166458          120     986.4266      342.738   -72430.529   -680.87738   -1118.7575    -495.0305    72.490367      62.7785    36.166458   -23700.455   -311188.44 
     290    493.23581    164428.76    72.467035    72.467036    36.154817          120    4132.8709     4257.319   -62560.615   -591.80532   -1390.2576   -427.57486    72.467035    62.758294    36.154817   -18056.809   -311236.19 
     300    493.70848     164274.9    72.444424    72.444425    36.143537          120     7991.977    8148.8295   -48494.433   -175.47249   -1595.5976   -365.70131    72.444424    62.738712    36.143537   -10784.542   -311278.67 
     310    483.99118    164130.49    72.423191    72.423191    36.132943          120    10360.834    10293.177   -34497.137    153.43103   -1398.0034   -683.81903    72.423191    62.720324    36.132943   -4614.3752   -311299.97 
     320    468.62397    163998.57    72.403782    72.403782    36.123259          120    9904.6565    10400.141   -27310.951   -63.228035    -1812.705   -1428.0928    72.403782    62.703515    36.123259   -2335.3845   -311308.74 
     330    465.54149    163879.21    72.386211    72.386212    36.114493          120    8246.7334    9376.8564   -28514.602   -206.96501   -1765.0316   -1397.5524    72.386211    62.688298    36.114493   -3630.3374   -311340.35 
     340     463.0653       163770    72.370129    72.370129     36.10647          120    7251.4105    8979.4057   -37800.032   -412.88766   -1381.5631   -1324.3452    72.370129    62.674371     36.10647   -7189.7385   -311372.17 
     350    455.46329    163667.21    72.354985    72.354985    36.098914          120     6890.243     8354.133   -49249.075   -590.54057   -854.11558   -1284.4213    72.354985    62.661255    36.098914     -11334.9   -311394.86 
     360    441.07313    163567.25    72.340252    72.340252    36.091563          120    7266.1508    9332.2679   -55742.774   -1002.9807   -625.41886   -2185.8295    72.340252    62.648496    36.091563   -13048.118   -311402.37 
     370    427.54462    163468.48    72.325687    72.325687    36.084297          120    8114.8143    11492.423   -55980.687   -1078.3788   -1779.4787   -2214.1787    72.325687    62.635883    36.084297   -12124.484   -311410.47 
     380    424.84569    163371.22    72.311341    72.311341    36.077139          120    10379.897     13478.98   -50856.505   -1159.0591    -1888.478   -1850.6137    72.311341    62.623459    36.077139   -8999.2091   -311438.12 
     390    422.49835    163277.36     72.29749    72.297491    36.070229          120    12947.791    15102.442   -41603.489   -1430.4487   -2050.0266   -1678.7261     72.29749    62.611464    36.070229    -4517.752   -311466.41 
     400    410.75273    163189.47    72.284515    72.284516    36.063756          120     14386.17    16052.933   -32352.321   -496.79992   -2250.5649   -1098.9698    72.284515    62.600227    36.063756   -637.73908   -311475.51 
     410    400.92475    163109.53     72.27271    72.272711    36.057866          120    15252.705    17278.478   -27494.789   -258.56668   -1686.6922   -1519.9049     72.27271    62.590004    36.057866    1678.7978   -311486.31 
     420    400.24397     163038.2    72.262173    72.262174    36.052609          120    15176.654    17447.105   -28319.688   -404.03192   -1554.6943   -988.40985    72.262173    62.580878    36.052609    1434.6904   -311514.59 
     430    393.06168    162974.37    72.252741    72.252742    36.047903          120    14791.303    16104.982   -33198.642   -82.767467   -1391.2784   -107.04117    72.252741     62.57271    36.047903    -767.4521   -311530.36 
     440    386.50495    162915.77    72.244081    72.244081    36.043582          120     14617.97    14750.054   -39597.611    89.870146   -1882.7932   -369.06793    72.244081     62.56521    36.043582   -3409.8622   -311546.27 
     450     377.3111    162860.05    72.235844    72.235845    36.039473          120    15014.386    14168.983   -43510.041    180.00492   -1453.0044   -520.82268    72.235844    62.558077    36.039473   -4775.5575      -311556 
     460    374.22334    162806.04    72.227857    72.227857    36.035488          120    17349.869    16006.055    -43505.38    747.03981   -1093.3899   -600.41397    72.227857     62.55116    36.035488   -3383.1518   -311576.76 
     470    367.96888    162754.36    72.220214    72.220214    36.031675          120    19652.704    17760.382   -39787.806    978.98614   -1818.9782   -154.41292    72.220214    62.544541    36.031675   -791.57326   -311590.85 
     480    362.41108    162706.53    72.213139    72.213139    36.028145          120    20146.887    19578.555   -33563.554    1202.3445   -1792.7627    358.99577    72.213139    62.538413    36.028145    2053.9626   -311606.01 
     490    356.95335     162664.1    72.206862    72.206862    36.025013          120    20558.686    20989.256   -29310.424    1134.7338   -1282.7214    591.32107    72.206862    62.532977    36.025013    4079.1725   -311619.88 
     500    350.84621       162628    72.201519     72.20152    36.022348          120    20833.771    22034.875   -27768.995    970.81813    -966.8381    1170.0518    72.201519    62.528351    36.022348    5033.2168      -311632 
     510    348.16846    162598.22    72.197112    72.197113    36.020149          120    19470.737    21370.093   -29267.107    1062.1219   -1638.6129    1210.5664    72.197112    62.524534    36.020149    3857.9074   -311650.66 
     520    339.91201    162573.49    72.193452    72.193452    36.018323          120    18619.764    19670.807   -32029.706    618.10025   -1626.1413    482.89848    72.193452    62.521364    36.018323    2086.9551   -311657.63 
     530    333.24176     162552.2    72.190299      72.1903     36.01675          120     18331.96    19842.212   -34980.734    311.99084   -1825.9923     193.2851    72.190299    62.518634     36.01675    1064.4793   -311666.73 
     540    328.70507    162533.29      72.1875      72.1875    36.015353          120    17998.949    20639.621   -37169.419    800.91614   -2230.3448    172.39095      72.1875    62.516209    36.015353    489.71683   -311679.46 
     550    322.02586     162516.2     72.18497    72.184971    36.014091          120    18396.527     21486.24   -37458.094    1077.8664   -2539.8599   -29.622401     72.18497    62.514019    36.014091    808.22444   -311686.93 
     560    319.48596    162500.98    72.182717    72.182717    36.012967          120    19047.535    21689.494   -35797.605    272.83328   -2730.4453    1009.6446    72.182717    62.512067    36.012967    1646.4746   -311702.18 
     570    313.88172    162488.09    72.180807    72.180808    36.012014          120    20088.779    21736.213   -32752.587    540.20744   -2862.1795    755.63066    72.180807    62.510414    36.012014    3024.1349   -311711.29 
     580    306.33811    162478.24    72.179349     72.17935    36.011287          120    20604.558    21818.917   -30179.678    1051.9028   -2453.4572    497.99889    72.179349    62.509151    36.011287    4081.2655   -311715.57 
     590    304.61948    162471.96     72.17842     72.17842    36.010823          120    20729.409    21794.443   -28106.629    1180.4772   -2591.9065    342.88103     72.17842    62.508346    36.010823    4805.7411    -311730.6 
     600    301.00384    162469.45    72.178047    72.178048    36.010637          120    20518.914     20989.51   -28779.492    1355.0315   -2186.5022    285.88993    72.178047    62.508023    36.010637    4242.9773   -311741.73 
     610    299.59307    162470.08    72.178141    72.178142    36.010684          120    20523.678    19906.035   -31161.901    644.83791   -1799.1261    42.785624    72.178141    62.508105    36.010684    3089.2706   -311756.49 
     620    295.92241     162472.9    72.178559    72.178559    36.010893          120    20503.074    20074.765   -33310.232    324.31701   -1946.4452   -605.99645    72.178559    62.508466    36.010893    2422.5355   -311766.84 
     630    289.04733    162477.27    72.179206    72.179206    36.011215          120    20457.152    20247.593   -35046.619    363.14403   -1690.5011   -822.52365    72.179206    62.509026    36.011215    1886.0422   -311770.71 
     640     286.1047    162482.71    72.180012    72.180012    36.011618          120    20759.321    20087.855   -35339.793    760.23694   -1693.4629   -622.96714    72.180012    62.509725    36.011618    1835.7945   -311781.26 
     650    280.24042    162489.15    72.180965    72.180966    36.012093          120     21172.45    20668.005   -33804.777    825.19734   -2008.4099   -594.88159    72.180965     62.51055    36.012093    2678.5593   -311785.34 
     660    279.98009    162497.12    72.182145    72.182145    36.012682          120    21613.474    21924.343   -31215.691     737.1192   -2431.1731   -966.36843    72.182145    62.511572    36.012682    4107.3754   -311799.91 
     670    276.95159    162507.51    72.183684    72.183684     36.01345          120    22402.667    22520.096   -28354.369    779.80148   -2447.2154   -1061.8552    72.183684    62.512905     36.01345    5522.7979    -311809.3 
     680    272.65781    162521.12    72.185699    72.185699    36.014455          120    21798.412    22659.527   -27753.582    525.57295   -2515.4723   -809.16808    72.185699    62.514649    36.014455    5568.1189   -311815.91 
     690    269.05709    162537.82     72.18817    72.188171    36.015688          120    21037.467    22256.924   -28902.909    142.08371   -2308.1745   -589.91934     72.18817     62.51679    36.015688    4797.1608   -311823.55 
     700     268.1682    162556.88    72.190992    72.190992    36.017096          120    20632.446    20890.481   -30882.074     260.2485    -2141.693   -451.87864    72.190992    62.519234    36.017096    3546.9511   -311836.07 
     710     264.7237     162577.3    72.194016    72.194016    36.018604          120    19541.926    19725.009   -32800.787    196.74618     -1962.62   -153.46724    72.194016    62.521852    36.018604    2155.3822   -311842.31 
     720    257.49722    162598.08    72.197091    72.197092    36.020139          120    19129.032    19847.929   -34880.418     1.269997   -1104.9255   -813.61602    72.197091    62.524516    36.020139    1365.5139   -311841.67 
     730     255.6216    162618.63    72.200133    72.200134    36.021656          120     19493.65    19892.631   -34952.115    492.82826   -1248.3313   -1211.2922    72.200133     62.52715    36.021656    1478.0551   -311850.16 
     740    252.77442    162639.06    72.203156    72.203156    36.023164          120    20140.623     20154.13   -33601.621    691.31441   -1632.1377   -1509.9093    72.203156    62.529768    36.023164    2231.0439   -311856.74 
     750    249.80513    162659.87    72.206236    72.206236    36.024701          120    20576.022    20497.768   -32284.576    665.90125    -1876.762   -1613.0708    72.206236    62.532435    36.024701    2929.7379   -311862.84 
     760    247.93487    162681.54    72.209442    72.209442      36.0263          120    20754.837    20135.555    -31347.34    337.64957   -1728.4773   -1685.6279    72.209442    62.535211      36.0263    3181.0174    -311870.3 
     770    246.39947    162704.21    72.212796    72.212797    36.027974          120    20679.421    20127.148   -31909.083     518.9138   -1983.8445   -2053.5296    72.212796    62.538117    36.027974    2965.8287    -311878.6 
     780    243.68721    162727.69    72.216269    72.216269    36.029707          120    20186.517    19052.724   -32563.665    617.32664   -2366.3359   -1636.0187    72.216269    62.541124    36.029707    2225.1921   -311884.17 
     790     242.1734    162751.43    72.219781    72.219782    36.031459          120     19323.59    18797.266   -33416.305    713.05992   -2094.4513   -1338.9116    72.219781    62.544166    36.031459    1568.1839    -311891.9 
     800    240.04229    162774.96    72.223261    72.223262    36.033195          120    18874.373    18528.331    -34445.25    1260.5135   -1541.8796   -1142.4829    72.223261     62.54718    36.033195    985.81833   -311898.47 
     810    236.04377     162797.9    72.226654    72.226654    36.034888          120    19078.394    18505.907   -35743.249    1552.1575    -1571.452   -640.82255    72.226654    62.550118    36.034888    613.68394   -311900.34 
     820    234.28487    162820.02    72.229924    72.229925     36.03652          120    18741.206    18616.736   -36293.582    1662.0578   -1460.3511   -514.51602    72.229924     62.55295     36.03652    354.78655   -311906.32 
     830    231.23352    162841.18    72.233053    72.233054    36.038081          120    18148.764    17960.791   -35350.807    1547.0874   -1756.0104   -511.66447    72.233053     62.55566    36.038081    252.91601   -311909.89 
     840    228.67181    162861.38     72.23604    72.236041    36.039571          120    18377.427    17816.303   -34796.834    1337.1451   -1576.6418   -1341.7738     72.23604    62.558247    36.039571     465.6317   -311913.74 
     850    226.17012    162880.85    72.238918    72.238919    36.041007          120    18646.871    18395.933   -34203.589    799.24632   -1506.6814   -1789.3049    72.238918    62.560739    36.041007    946.40476   -311917.34 
     860    224.50806    162899.91    72.241736    72.241736    36.042413          120    18899.777    18269.729   -34378.463    942.10902   -1384.1596   -1639.9123    72.241736    62.563179    36.042413    930.34766   -311922.22 
     870    221.49517    162918.61      72.2445    72.244501    36.043792          120    18215.549    18284.697   -34340.777    1536.7485   -1226.4469   -1856.7806      72.2445    62.565573    36.043792    719.82336   -311924.15 
     880    221.93094    162936.81    72.247191    72.247191    36.045134          120    17196.443    18806.825   -35080.251    1148.9533   -1082.7698   -1142.4906    72.247191    62.567903    36.045134     307.6722   -311932.18 
     890    219.83263    162954.26    72.249769     72.24977     36.04642          120    16458.123    18603.923   -36005.888    1271.7419      -1462.2   -1331.3379    72.249769    62.570136     36.04642   -314.61415   -311935.01 
     900    217.05505    162970.57     72.25218     72.25218    36.047623          120    15963.756    18369.825   -36312.712    1448.1971   -1281.8891   -1520.3539     72.25218    62.572224    36.047623   -659.71035   -311936.88 
     910    215.61614    162985.55    72.254394    72.254395    36.048728          120    15661.467    17922.966   -36232.944    1357.9581   -1568.0733    -1464.919    72.254394    62.574141    36.048728   -882.83724   -311941.35 
     920    215.10511    162999.12      72.2564      72.2564    36.049729          120    15705.085    17341.081   -35968.115    2149.6956   -1550.3321   -1581.4397      72.2564    62.575878    36.049729   -973.98294   -311946.45 
     930    211.80693    163011.33    72.258203    72.258203    36.050628          120    15953.671     17564.24   -35347.885    2503.5115   -798.63415   -1029.7525    72.258203     62.57744    36.050628   -609.99107   -311945.46 
     940    212.51351    163022.44    72.259844    72.259845    36.051447          120    15605.575    17676.862    -34588.29    2276.4034   -1290.6564   -793.26825    72.259844    62.578861    36.051447   -435.28435   -311951.95 
     950    210.05092    163032.67    72.261356    72.261356    36.052201          120    15529.444    18018.953    -34504.71    1977.3974   -1978.3012   -1146.3648    72.261356     62.58017    36.052201   -318.77113   -311952.97 
     960    209.77879    163042.14    72.262755    72.262756    36.052899          120    15973.108    18155.489   -35595.832    2067.2774   -2391.9678   -943.44629    72.262755    62.581382    36.052899   -489.07817   -311957.39 
     970    207.61127    163050.78    72.264032    72.264032    36.053536          120    16378.628    17584.012   -36440.673    1704.4666    -2268.783   -781.86653    72.264032    62.582488    36.053536   -826.01094      -311958 
     980    206.19926     163058.4    72.265158    72.265158    36.054098          120    16271.582    17005.182   -36477.343    1673.8209   -2026.1863   -557.04386    72.265158    62.583463    36.054098     -1066.86   -311959.98 
     990    206.16665     163064.9    72.266118    72.266119    36.054577          120    16799.311    17201.097   -36794.332    1702.5169   -1838.4777   -349.63826    72.266118    62.584295    36.054577   -931.30801   -311964.66 
    1000     204.6031    163070.38    72.266927    72.266927    36.054981          120    16904.937    16880.001   -37580.342    1743.2898   -1628.1373   -496.24567    72.266927    62.584995    36.054981   -1265.1345   -311965.46 
Loop time of 391.01 on 1 procs for 1000 steps with 14848 atoms

Performance: 0.221 ns/day, 108.614 hours/ns, 2.557 timesteps/s
100.0% CPU use with 1 MPI tasks x no OpenMP threads

MPI task timing breakdown:
Section |  min time  |  avg time  |  max time  |%varavg| %total
---------------------------------------------------------------
Pair    | 314.5      | 314.5      | 314.5      |   0.0 | 80.43
Bond    | 0.00058198 | 0.00058198 | 0.00058198 |   0.0 |  0.00
Kspace  | 14.701     | 14.701     | 14.701     |   0.0 |  3.76
Neigh   | 52.534     | 52.534     | 52.534     |   0.0 | 13.44
Comm    | 0.53042    | 0.53042    | 0.53042    |   0.0 |  0.14
Output  | 0.013679   | 0.013679   | 0.013679   |   0.0 |  0.00
Modify  | 8.5443     | 8.5443     | 8.5443     |   0.0 |  2.19
Other   |            | 0.181      |            |       |  0.05

Nlocal:    14848 ave 14848 max 14848 min
Histogram: 1 0 0 0 0 0 0 0 0 0
Nghost:    46884 ave 46884 max 46884 min
Histogram: 1 0 0 0 0 0 0 0 0 0
Neighs:    1.0092e+07 ave 1.0092e+07 max 1.0092e+07 min
Histogram: 1 0 0 0 0 0 0 0 0 0

Total # of neighbors = 10091999
Ave neighs/atom = 679.687
Ave special neighs/atom = 0
Neighbor list builds = 156
Dangerous builds = 0
PPPM initialization ...
  using 12-bit tables for long-range coulomb (../kspace.cpp:321)
  G vector (1/distance) = 0.20262
  grid = 36 50 24
  stencil order = 5
  estimated absolute RMS force accuracy = 0.000996681
  estimated relative force accuracy = 6.92156e-05
  using double precision FFTs
  3d grid and FFT values/proc = 65395 43200
Setting up Verlet run ...
  Unit style    : metal
  Current step  : 0
  Time step     : 0.001
Per MPI rank memory allocation (min/avg/max) = 152.6 | 152.6 | 152.6 Mbytes
Step Temp Volume Cella Cellb Cellc CellGamma Pxx Pyy Pzz Pxy Pxz Pyz Lx Ly Lz Press PotEng 
       0     204.6031    163070.38    72.266927    72.266927    36.054981          120    16916.949    16892.585   -37573.824    1743.8284   -1628.1673   -496.30475    72.266927    62.584995    36.054981   -1254.7636   -311965.29 
      10    204.48703     163074.7    72.267566    72.267566    36.055299          120    16648.182     16620.06   -37180.666    1311.6954   -1203.6593   -484.00182    72.267566    62.585548    36.055299   -1304.1417   -311968.58 
      20    204.25777     163077.9    72.268038    72.268038    36.055535          120    16675.573     16258.28    -36275.41    1087.3528   -1255.7464    135.73925    72.268038    62.585957    36.055535   -1113.8525   -311971.38 
      30    203.29314    163080.09    72.268362    72.268362    36.055696          120     15968.91    15931.991   -36033.111    1050.5365   -1570.9756   -22.848231    72.268362    62.586238    36.055696   -1377.4033   -311972.36 
      40    203.22902    163081.21    72.268527    72.268527    36.055779          120    15905.588    16210.812   -36227.645    1091.9506   -1671.3645   -555.33456    72.268527    62.586381    36.055779   -1370.4152   -311975.02 
      50    200.90392     163081.3    72.268541    72.268541    36.055786          120    16141.204    16724.711     -36143.2    1359.3046    -2325.058   -881.29151    72.268541    62.586393    36.055786   -1092.4285   -311973.01 
      60    202.46747    163080.57    72.268432    72.268433    36.055732          120    15965.301    16843.604   -36216.403     1803.426   -2726.3055   -1394.3715    72.268432    62.586299    36.055732   -1135.8327   -311978.33 
      70    202.09424    163079.03    72.268204    72.268205    36.055618          120    15669.579    16626.748   -36767.049    1783.8802   -2332.7598   -1137.4808    72.268204    62.586102    36.055618   -1490.2408   -311979.55 
      80    200.12084    163076.49     72.26783    72.267831    36.055431          120    15971.139    15869.262   -36771.661    1574.3094   -2068.6612   -1028.9617     72.26783    62.585777    36.055431   -1643.7531   -311977.43 
      90    199.95329    163072.87    72.267295    72.267296    36.055164          120     15626.02    15910.214   -37085.694    1529.7072   -1736.6887   -632.62595    72.267295    62.585314    36.055164   -1849.8201   -311977.68 
     100    201.33033    163068.12    72.266594    72.266594    36.054815          120    16155.375    16606.614   -37105.446     1548.495   -1119.0282   -763.92704    72.266594    62.584707    36.054815   -1447.8192   -311981.29 
     110    199.85398    163062.57    72.265774    72.265775    36.054406          120    17002.632    17280.083   -36791.793    1780.9591   -748.69082   -748.58639    72.265774    62.583997    36.054406   -836.35934   -311978.56 
     120     199.2231    163056.62    72.264895    72.264895    36.053967          120    16829.237    17071.918     -36623.1    1941.5811    -974.3546   -595.14396    72.264895    62.583235    36.053967   -907.31504   -311977.44 
     130    200.06688    163050.32    72.263964    72.263964    36.053502          120    16991.093    17202.929   -35662.009    2130.8593   -1291.2546   -392.28504    72.263964    62.582429    36.053502   -489.32932   -311978.96 
     140    200.03603    163043.95    72.263022    72.263023    36.053033          120    18314.198    17108.432   -35458.525    2390.1543   -1796.0889   -51.158304    72.263022    62.581614    36.053033   -11.964973   -311977.72 
     150    201.39443    163037.82    72.262116    72.262117    36.052581          120    18434.504    16904.552    -35385.81    2051.7078   -1773.6734   -256.14489    72.262116    62.580829    36.052581   -15.584599   -311979.44 
     160    202.65238    163031.93    72.261247    72.261247    36.052147          120    17886.345    16632.867   -35392.966    1858.4122    -1728.847   -3.8721549    72.261247    62.580076    36.052147   -291.25123   -311980.55 
     170    202.05165    163026.11    72.260387    72.260388    36.051718          120    18123.907    16691.043   -35814.861     1655.464    -1536.226    -224.4806    72.260387    62.579332    36.051718    -333.3034   -311977.42 
     180    200.48915    163020.33    72.259532    72.259533    36.051291          120    17997.005    17242.059    -35957.94     1186.182   -1826.0835   -259.89901    72.259532    62.578591    36.051291   -239.62555   -311972.48 
     190    204.49884    163014.57    72.258682    72.258682    36.050867          120     16923.35    17312.779   -36060.349    1084.6529   -1598.3311   -158.95147    72.258682    62.577855    36.050867   -608.07347   -311978.59 
     200    203.50078    163008.69    72.257813    72.257813    36.050433          120    17164.477    17315.819   -34910.988    1385.0145   -1123.3995   -530.11064    72.257813    62.577102    36.050433   -143.56384   -311973.89 
     210    203.04626    163002.94    72.256964    72.256964     36.05001          120    17685.789    17554.656    -34606.76    1451.2472   -704.24181   -514.90294    72.256964    62.576367     36.05001    211.22835   -311970.46 
     220    204.86472    162997.57     72.25617    72.256171    36.049614          120     17929.46    17457.618   -34658.817    1295.1684   -140.53086   -1069.7917     72.25617     62.57568    36.049614    242.75362   -311971.08 
     230    207.04278    162992.63     72.25544    72.255441     36.04925          120    18261.778    17841.894   -34760.412    1807.8233   -500.45266   -946.54114     72.25544    62.575048     36.04925    447.75357   -311972.01 
     240    208.40133    162988.21    72.254787    72.254787    36.048924          120    18226.945    18400.249   -35122.956    1995.8621   -1149.4436   -845.31326    72.254787    62.574481    36.048924    501.41279   -311971.61 
     250    207.59189    162984.34    72.254215    72.254215    36.048638          120    18374.077    18004.239   -34816.768    1686.3802   -1914.5037   -771.50054    72.254215    62.573986    36.048638    520.51636   -311966.82 
     260    209.52433       162981    72.253721    72.253722    36.048392          120    18444.472    17264.551   -35237.457    1799.6381   -1690.5442   -651.29592    72.253721    62.573559    36.048392    157.18875   -311967.23 
     270    208.89613    162977.89    72.253262    72.253263    36.048163          120    18112.938    16277.643   -36018.497    1498.5637   -1545.1562   -638.67904    72.253262    62.573161    36.048163   -542.63883   -311962.65 
     280    209.77671    162974.56     72.25277    72.252771    36.047918          120    18082.499    16358.219   -36048.957    1387.5404   -1693.6052   -436.00849     72.25277    62.572735    36.047918   -536.07955   -311961.41 
     290    211.06657    162971.01    72.252246    72.252246    36.047656          120    18464.005    17028.089   -35554.709    1584.0107   -2006.8585    7.6132689    72.252246    62.572281    36.047656   -20.871513   -311960.85 
     300    211.79016    162967.56    72.251735    72.251735    36.047401          120    17886.287    17179.002   -35142.935    1859.8018    -2012.778    148.59152    72.251735    62.571838    36.047401   -25.882041   -311959.15 
     310    214.97545    162964.21     72.25124    72.251241    36.047154          120    17101.327    17692.451   -35490.612    2105.5969   -1589.7848   -202.03398     72.25124     62.57141    36.047154   -232.27781   -311962.02 
     320    213.44245    162960.85    72.250744    72.250744    36.046907          120    16857.793    17667.899   -35281.257    1648.2829   -1701.7462   -638.98078    72.250744     62.57098    36.046907   -251.85481   -311956.67 
     330    215.59408    162957.44    72.250239     72.25024    36.046655          120    16826.046    17319.154   -35246.246    1587.7638    -1301.466   -1148.9915    72.250239    62.570543    36.046655   -367.01523   -311958.25 
     340     216.7055    162953.92    72.249719     72.24972    36.046396          120    17067.918    17181.034    -34807.38    1345.9266    -1349.949   -1192.5159    72.249719    62.570093    36.046396   -186.14254   -311958.08 
     350    216.97255    162950.42    72.249202    72.249203    36.046138          120    17515.575    17889.125   -34756.956     1458.052   -1096.7294    -1028.597    72.249202    62.569645    36.046138    215.91451   -311956.63 
     360    218.54011    162947.19    72.248724    72.248725    36.045899          120    17026.881    19047.782   -35343.135    1466.9483   -1074.5781   -1212.0086    72.248724    62.569231    36.045899    243.84241   -311957.98 
     370    217.93798    162944.26    72.248291    72.248292    36.045683          120    16979.283    19263.273   -35272.832    1812.1233   -1354.0697   -1171.9531    72.248291    62.568856    36.045683    323.24135   -311955.07 
     380    217.37077    162941.72    72.247916    72.247917    36.045496          120    17173.892    19420.121   -34268.577    1459.9918   -1383.7618   -1372.9807    72.247916    62.568531    36.045496    775.14519   -311952.78 
     390    215.41812    162939.83    72.247637    72.247637    36.045356          120    17579.888    19048.113   -33441.201    1141.5397   -1804.2111   -986.38518    72.247637    62.568289    36.045356    1062.2666   -311948.17 
     400    217.93509    162938.78    72.247482    72.247483    36.045279          120     18723.78    18672.616    -33222.57    826.40563   -1438.2135    -864.9221    72.247482    62.568155    36.045279    1391.2754   -311952.59 
     410    217.12318    162938.77     72.24748     72.24748    36.045278          120    18619.582    18817.468   -33240.171    1090.3981   -1797.2236   -956.46866     72.24748    62.568154    36.045278    1398.9596   -311950.78 
     420    219.74478    162939.76    72.247627    72.247627    36.045351          120    18488.115    18857.383   -33826.451    1376.3709   -1662.1095   -457.74712    72.247627    62.568281    36.045351    1173.0153   -311956.01 
     430    217.66732    162941.57    72.247895    72.247895    36.045485          120    18424.408    18450.515   -33711.912    1784.1563   -1311.8306    17.482501    72.247895    62.568513    36.045485    1054.3371    -311952.8 
     440    218.72137    162944.07    72.248264    72.248264    36.045669          120    18404.356    17788.977   -33896.493    1791.0021   -1714.5423     -1116.03    72.248264    62.568833    36.045669    765.61354   -311955.21 
     450     220.0204    162947.04    72.248702    72.248703    36.045888          120    18620.979    17827.653   -34600.261    1795.6579   -1823.5587   -1785.3054    72.248702    62.569212    36.045888     616.1237   -311958.73 
     460    217.19743    162950.37    72.249195    72.249196    36.046134          120    19277.107    17974.835   -34255.272     1269.563   -1035.7104   -1804.7881    72.249195    62.569639    36.046134    998.88963   -311954.42 
     470    217.05775    162954.29    72.249774    72.249775    36.046423          120    19475.584    17752.779   -33769.614    1176.0478   -804.28114   -1844.1141    72.249774     62.57014    36.046423    1152.9165   -311955.74 
     480    215.08621    162958.91    72.250458    72.250458    36.046764          120    19630.526    18461.947   -33637.489    1299.4792    -1137.786   -1647.1665    72.250458    62.570732    36.046764    1484.9944   -311954.04 
     490    216.81121     162964.4    72.251268    72.251268    36.047168          120    19769.586     18406.68   -34084.828     1844.795   -1089.7969   -1754.9187    72.251268    62.571434    36.047168    1363.8129   -311959.76 
     500    215.87044    162970.66    72.252194    72.252194     36.04763          120    19517.208    17887.401   -33727.399    2519.9526   -1479.9363   -1479.1804    72.252194    62.572236     36.04763    1225.7368   -311960.31 
     510    213.50516    162977.56    72.253213    72.253213    36.048139          120    18930.981    17760.514   -34140.029    2066.9738   -1562.4461   -1144.7169    72.253213    62.573118    36.048139     850.4889   -311958.21 
     520    212.78058     162984.8    72.254283    72.254284    36.048673          120    19029.145    17495.394   -34879.568    1708.0896   -1654.8065   -568.39031    72.254283    62.574046    36.048673    548.32379   -311959.38 
     530     213.8963     162992.2    72.255376    72.255376    36.049218          120    18755.281    18027.795   -34923.785    1680.6974   -1681.0565   -333.84142    72.255376    62.574992    36.049218    619.76361   -311964.17 
     540    213.33822    162999.73     72.25649     72.25649    36.049774          120    18725.613    17625.528   -34870.473    1651.1559   -1638.2198   -662.31106     72.25649    62.575956    36.049774    493.55599   -311965.41 
     550    211.26525    163007.37    72.257618    72.257619    36.050336          120    18496.471    17465.544    -34502.64    2170.8485   -1487.5873   -1053.7395    72.257618    62.576933    36.050336    486.45825   -311964.35 
     560    211.01492    163015.02    72.258748    72.258749      36.0509          120    17374.584    17510.232   -35345.026    2056.4933   -1451.2875     -1053.98    72.258748    62.577912      36.0509    -153.4032   -311967.22 
     570    211.76947    163022.32    72.259826    72.259827    36.051438          120    16657.943    17386.489   -35470.786    1220.3775   -1141.9655   -1460.4424    72.259826    62.578846    36.051438   -475.45127   -311971.79 
     580    211.52616    163028.96    72.260809    72.260809    36.051928          120    15865.231    16903.197   -36050.334    1052.2987   -580.64976   -1321.9747    72.260809    62.579697    36.051928   -1093.9687    -311974.6 
     590     209.8057    163034.64    72.261647    72.261648    36.052347          120    15992.399    16932.681   -35495.878    1609.8783   -367.40353    -524.8769    72.261647    62.580423    36.052347   -856.93235   -311974.32 
     600    207.75017    163039.48    72.262362    72.262363    36.052703          120    17104.178    16859.449   -35558.713    1727.3023   -563.38213   -585.49765    72.262362    62.581042    36.052703   -531.69535    -311973.4 
     610    209.13157    163043.76    72.262994    72.262995    36.053019          120    17484.397    16907.801   -34777.328    1669.0658   -1170.4499   -211.24106    72.262994    62.581589    36.053019   -128.37652   -311978.88 
     620    208.62502    163047.77    72.263587    72.263587    36.053314          120    17285.109    17425.522   -34542.038    2199.7233   -1361.5051   -698.56463    72.263587    62.582103    36.053314    56.197937    -311980.3 
     630    207.55383    163051.63    72.264157    72.264157    36.053599          120    17208.338    16847.254   -35291.013    2128.7143   -1490.0958   -1201.4274    72.264157    62.582596    36.053599   -411.80716   -311980.46 
     640    207.26788    163055.06    72.264664    72.264665    36.053852          120    17231.932    16594.652   -35727.915    1603.1392   -1340.9805   -928.45092    72.264664    62.583036    36.053852   -633.77687    -311981.5 
     650     205.9486    163057.91    72.265085    72.265086    36.054062          120    16857.846    16653.239   -36401.824    1373.6787    -808.9881   -841.36077    72.265085      62.5834    36.054062   -963.57971   -311981.35 
     660    205.90665    163059.92    72.265382    72.265383     36.05421          120    16433.989     15724.76   -37097.889    1717.3181   -922.44573   -916.28369    72.265382    62.583658     36.05421   -1646.3797   -311983.64 
     670     207.4427    163060.75    72.265504    72.265505    36.054271          120    16955.597    16024.892   -36274.319    1566.5433   -692.14782   -823.99302    72.265504    62.583763    36.054271   -1097.9434   -311988.73 
     680    205.14243    163060.75    72.265505    72.265506    36.054271          120    17735.311    16742.679   -35605.791    1218.9078   -428.71535   -694.15143    72.265505    62.583764    36.054271    -375.9334    -311985.9 
     690    204.48819    163060.45     72.26546    72.265461    36.054249          120    18218.577    16747.602   -35444.607    1593.9112   -935.15101   -422.91503     72.26546    62.583725    36.054249   -159.47616   -311986.31 
     700    203.57531    163060.03    72.265398    72.265399    36.054218          120     18505.07    16785.731   -35343.538    1866.5377   -1387.7112    -347.8809    72.265398    62.583671    36.054218   -17.578878   -311986.39 
     710    206.39621    163059.59    72.265334    72.265335    36.054186          120    18396.227    17230.312   -35727.659    1929.2653   -1242.0212    -548.3194    72.265334    62.583616    36.054186   -33.706276   -311993.13 
     720    203.37389    163059.16     72.26527     72.26527    36.054154          120    17988.658    17863.132   -35801.852    2012.8225   -1359.9582   -203.90771     72.26527     62.58356    36.054154    16.646104   -311988.54 
     730    203.72355    163058.72    72.265205    72.265206    36.054122          120    17405.783    17409.398   -35661.991    2043.3139   -975.57267    273.37076    72.265205    62.583504    36.054122    -282.2704   -311989.87 
     740    203.88296    163058.13    72.265118    72.265118    36.054078          120    17454.473    17554.857   -35381.279    1764.6113   -562.65584    155.28407    72.265118    62.583428    36.054078   -123.98307    -311990.2 
     750     200.7071    163057.48    72.265022    72.265023     36.05403          120    18153.142    17901.117   -35341.154    1884.2758   -988.58504   -890.31166    72.265022    62.583346     36.05403    237.70156   -311984.11 
     760    202.83792    163057.03    72.264954    72.264955    36.053997          120    18028.095    18524.187   -35153.704     1748.103   -597.86673   -1395.5359    72.264954    62.583287    36.053997    466.19269   -311987.92 
     770    204.19346    163056.89    72.264935    72.264936    36.053987          120    18185.033    18167.056   -34969.404    1934.7364   -733.43462   -1964.3432    72.264935     62.58327    36.053987    460.89483   -311990.63 
     780    203.01576    163057.09    72.264964    72.264965    36.054002          120     18425.66    17596.664   -35312.503    1727.9169   -981.36979   -1762.3356    72.264964    62.583296    36.054002    236.60677   -311987.92 
     790    203.65961    163057.44    72.265015    72.265016    36.054027          120    17927.099    17388.258   -35652.352    1884.4453   -1037.2847   -1061.9671    72.265015     62.58334    36.054027   -112.33176   -311988.57 
     800    202.29986    163057.73    72.265059     72.26506    36.054049          120    18589.186    17717.017   -35428.757    1431.2134   -1584.0695   -1329.9415    72.265059    62.583378    36.054049    292.48225   -311984.99 
     810    204.85975    163058.19    72.265127    72.265127    36.054083          120    18142.106    17953.339   -35390.853    1872.1006   -1903.9646   -1025.6981    72.265127    62.583436    36.054083    234.86401   -311988.72 
     820    204.32456    163058.82     72.26522    72.265221    36.054129          120    18036.329    17912.931   -35728.781    1683.1733   -1556.0168   -935.16335     72.26522    62.583517    36.054129    73.493123   -311986.12 
     830    205.59211    163059.49    72.265318    72.265319    36.054178          120      17355.5    18073.966   -35898.601    1677.7129   -1121.1847     -893.059    72.265318    62.583602    36.054178   -156.37827   -311987.36 
     840    205.36496    163060.03    72.265399    72.265399    36.054218          120    17426.411    17985.359   -35754.736    1578.4666   -1550.6356   -745.32849    72.265399    62.583672    36.054218   -114.32216    -311985.1 
     850    207.09046    163060.47    72.265464    72.265464    36.054251          120    17938.385    17684.482   -35885.985    1618.8795   -1026.4439   -991.99137    72.265464    62.583728    36.054251   -87.706103   -311986.39 
     860    206.91451    163060.83    72.265516    72.265517    36.054277          120    18637.462    16809.826   -35666.954    1713.7995   -859.72316   -1065.3668    72.265516    62.583773    36.054277   -73.221995   -311984.09 
     870    208.58478    163061.14    72.265563    72.265563      36.0543          120     19345.78    16972.756   -35323.094     1532.705   -1063.6366    -855.8874    72.265563    62.583814      36.0543    331.81409   -311985.21 
     880    208.28793    163061.67    72.265641    72.265641    36.054339          120    18866.412    17327.381   -34847.213    1642.7986   -721.94176    -519.3846    72.265641    62.583881    36.054339    448.85993   -311982.03 
     890    210.15033    163062.47    72.265759     72.26576    36.054398          120    17980.941    17376.848   -34948.859    1627.7509   -515.12723   -569.27272    72.265759    62.583984    36.054398    136.30993   -311983.54 
     900    208.77506    163063.37    72.265892    72.265892    36.054464          120    17640.527    18040.377   -35263.163    1950.2721   -749.83617   -999.32481    72.265892    62.584099    36.054464    139.24685   -311978.42 
     910    209.51524    163064.32    72.266033    72.266033    36.054535          120    17857.532    17695.436   -35349.009     1922.998   -1250.1454     -1181.03    72.266033    62.584221    36.054535    67.986331   -311978.02 
     920    211.11114    163065.31    72.266178    72.266179    36.054607          120    17698.324     17588.03   -35494.146    2295.1142    -1270.304   -779.19319    72.266178    62.584347    36.054607   -69.264233   -311978.68 
     930    212.24494     163066.2     72.26631     72.26631    36.054673          120    17428.222    17167.955   -35856.645    1779.5024   -1221.6156   -707.60328     72.26631    62.584461    36.054673   -420.15598   -311978.66 
     940    212.41811    163066.77    72.266394    72.266394    36.054715          120    17453.013    16994.456   -36314.884     1683.253   -873.29012   -163.47565    72.266394    62.584534    36.054715   -622.47164   -311976.46 
     950    214.74454    163066.88     72.26641    72.266411    36.054723          120    17576.216    17118.887   -35989.484    2188.3105   -804.98128   -149.91893     72.26641    62.584548    36.054723    -431.4604   -311978.61 
     960    213.65553    163066.72    72.266387    72.266387    36.054711          120    17986.237    17782.461   -34771.564    1868.5294   -698.27473   -208.57986    72.266387    62.584528    36.054711    332.37809   -311974.59 
     970    214.68402    163066.74     72.26639     72.26639    36.054713          120    18115.681    17592.991   -34839.329    1503.9523   -491.76378   -110.87954     72.26639     62.58453    36.054713     289.7809    -311974.7 
     980     214.4814    163066.96    72.266422    72.266423    36.054729          120    18652.777    16541.279   -35080.269    1736.8356   -998.95528   -633.37456    72.266422    62.584558    36.054729       37.929   -311972.98 
     990    214.61921    163067.19    72.266455    72.266456    36.054745          120    19069.295    16109.272   -36501.977    2044.8744   -807.74544   -839.64164    72.266455    62.584587    36.054745   -441.13649   -311971.81 
    1000     212.7719    163067.13    72.266447    72.266447    36.054741          120    19104.414    15910.094   -36224.574    1684.4781   -1024.7561   -751.06858    72.266447    62.584579    36.054741   -403.35538   -311967.34 
    1010    214.28008    163066.78    72.266395    72.266396    36.054715          120    18937.516    16283.754   -36064.388    1901.5975   -1565.7106   -571.57655    72.266395    62.584535    36.054715   -281.03939   -311969.24 
    1020    216.40628    163066.25    72.266317    72.266318    36.054676          120    18718.602    17205.286   -35874.886    1939.1526   -1363.6926   -642.90115    72.266317    62.584467    36.054676    16.333846   -311972.79 
    1030    216.15638    163065.75    72.266244    72.266244     36.05464          120    18222.955    17828.309   -35211.845    1650.0375   -1289.9872   -847.24745    72.266244    62.584403     36.05464    279.80649   -311971.85 
    1040    215.99319    163065.45    72.266199    72.266199    36.054617          120    17783.127    17431.392   -34934.268    1618.4024   -1614.3876   -513.09211    72.266199    62.584365    36.054617    93.417014   -311970.31 
    1050    217.22194     163065.2    72.266162    72.266163    36.054599          120    17020.377    17529.828   -35558.074    1769.1473   -1298.7176   -1078.6817    72.266162    62.584333    36.054599    -335.9565   -311972.78 
    1060    217.12933    163064.76    72.266098    72.266098    36.054567          120     17046.61     18391.18   -35721.624    1443.1183   -1312.3851   -848.17104    72.266098    62.584277    36.054567    -94.61151   -311972.66 
    1070     216.9131    163064.31     72.26603     72.26603    36.054533          120    18030.392    18598.014   -34805.917    1390.2569   -1163.9664   -204.50092     72.26603    62.584218    36.054533    607.49628    -311972.6 
    1080    217.11975    163064.23    72.266019     72.26602    36.054528          120    18136.788    18136.699   -35031.801    1543.3016   -965.96802   -282.49878    72.266019    62.584209    36.054528    413.89536   -311973.98 
    1090    213.99359    163064.48    72.266055    72.266056    36.054546          120    18398.648      17938.2   -35180.332    1365.8987   -1094.1673   -160.59933    72.266055     62.58424    36.054546    385.50548   -311969.04 
    1100    216.50928    163064.98     72.26613    72.266131    36.054583          120    18593.799     18124.94   -34807.318    1750.8267    -1649.105   -251.14758     72.26613    62.584305    36.054583    637.14033   -311974.79 
    1110    216.98908    163065.92    72.266269     72.26627    36.054652          120    18630.119    18427.902   -34999.643    2497.6331   -1856.6303   -537.30288    72.266269    62.584425    36.054652    686.12605   -311976.87 
    1120    215.67744    163067.35    72.266479     72.26648    36.054757          120    18467.828    18640.569   -34699.571    2366.4481   -2192.7942   -288.01264    72.266479    62.584608    36.054757    802.94198    -311975.8 
    1130    212.40023    163069.29    72.266766    72.266767      36.0549          120    18313.699     18137.06   -34563.146    1750.2383   -2362.2355   -211.20869    72.266766    62.584856      36.0549    629.20439   -311971.21 
    1140    212.61638    163071.63    72.267112    72.267112    36.055073          120    18464.301    17449.542   -34857.432    1263.7619   -2191.7212   -393.50363    72.267112    62.585155    36.055073    352.13693   -311973.68 
    1150    213.07094    163074.13    72.267481    72.267482    36.055257          120    17857.068    17239.574   -35725.948    1434.7069   -2310.1904    180.89002    72.267481    62.585475    36.055257   -209.76885   -311976.64 
    1160    212.93625    163076.39    72.267815    72.267816    36.055424          120    16801.154    17179.074   -36404.267     1584.007   -2038.3952   -475.96388    72.267815    62.585765    36.055424   -808.01303   -311978.68 
    1170    213.41148    163078.01    72.268055    72.268055    36.055543          120    17208.307    16495.821   -36979.746    1551.8095   -1365.7026   -554.20858    72.268055    62.585972    36.055543   -1091.8728   -311982.17 
    1180    212.89073    163078.84    72.268177    72.268177    36.055604          120     17481.55    16451.126   -35943.854    1233.4294   -1453.8956   -477.32235    72.268177    62.586077    36.055604   -670.39285   -311983.49 
    1190    211.56109    163079.15    72.268223    72.268224    36.055627          120    17151.244    16850.048   -34423.827    1387.6109   -1640.9006   -422.28285    72.268223    62.586118    36.055627   -140.84514   -311983.52 
    1200    212.35126    163079.32    72.268248    72.268249     36.05564          120    17305.028    17177.312   -34327.327    1541.1921   -2156.5955    88.636755    72.268248     62.58614     36.05564    51.671033   -311987.74 
    1210    210.91232     163079.5    72.268274    72.268275    36.055653          120    16941.996    17383.313    -35131.97    1950.7145    -2085.536   -677.57116    72.268274    62.586162    36.055653   -268.88683   -311987.26 
    1220    208.95404    163079.48    72.268272    72.268273    36.055652          120    16985.843    17245.421   -35832.651    1845.8352   -1807.4306   -11.279285    72.268272     62.58616    36.055652   -533.79564   -311986.07 
    1230    208.32448    163079.11    72.268217    72.268218    36.055624          120     17369.81    17222.049   -35871.622    1159.6626   -1964.4953   -458.48639    72.268217    62.586113    36.055624   -426.58738   -311987.55 
    1240    207.95043    163078.47    72.268123    72.268123    36.055577          120     17941.61    17481.836   -35308.821     1569.292   -1875.4402   -699.87366    72.268123    62.586031    36.055577    38.208221   -311988.98 
    1250    208.36728    163077.86    72.268032    72.268033    36.055532          120    18474.693    17484.532   -35105.014    1502.3858   -1989.0295   -316.54602    72.268032    62.585953    36.055532    284.73686   -311991.86 
    1260     207.1226    163077.46    72.267973    72.267973    36.055502          120    18341.596    17462.019   -35460.728    1736.5865     -1521.15   -742.18633    72.267973    62.585901    36.055502     114.2958   -311991.45 
    1270    206.77411    163077.11    72.267922    72.267922    36.055477          120     17509.29    17132.154   -35624.653    1505.1548   -1262.8243   -778.96665    72.267922    62.585857    36.055477   -327.73643   -311992.82 
    1280    205.85651    163076.54    72.267837    72.267838    36.055435          120    16661.924    17217.694   -35746.482    1273.8877    -1367.217   -698.28768    72.267837    62.585784    36.055435   -622.28812   -311993.27 
    1290    206.07569    163075.56    72.267692    72.267693    36.055362          120    16943.225     17618.55   -36260.511    1244.8632   -1348.7937   -413.75695    72.267692    62.585658    36.055362   -566.24551   -311995.32 
    1300    206.21812     163074.2    72.267491    72.267491    36.055262          120    17576.704    17653.696   -36016.943    1407.8892   -1226.1968    139.59521    72.267491    62.585484    36.055262   -262.18078   -311996.42 
    1310    205.31243    163072.68    72.267267    72.267268     36.05515          120    18096.363    17185.005   -35129.912    1655.5522   -1383.1907    355.70418    72.267267     62.58529     36.05515     50.48513   -311995.91 
    1320    206.41218    163071.25    72.267056    72.267057    36.055045          120    18438.338    17798.111   -35155.689    1699.3424   -1704.3397     305.3277    72.267056    62.585107    36.055045    360.25329   -311999.21 
    1330    205.69061    163070.13    72.266891    72.266891    36.054963          120    18776.901    18655.672    -35575.92    1965.7185        -2071    49.053924    72.266891    62.584964    36.054963    618.88413   -311999.12 
    1340    203.88172    163069.48    72.266794    72.266795    36.054914          120    18957.454    18532.188   -36297.599    1765.7783   -2348.8765   -480.54089    72.266794     62.58488    36.054914    397.34768   -311996.52 
    1350     204.5639    163069.13    72.266742    72.266743    36.054889          120    18071.811    18582.796   -36116.968    1928.8284   -2088.8709   -543.46654    72.266742    62.584835    36.054889    179.21319   -311998.33 
    1360    204.94505     163068.9    72.266709     72.26671    36.054872          120    17745.193     17982.95   -36088.187    2052.2234   -2414.4498   -348.14923    72.266709    62.584807    36.054872   -120.01483    -311999.7 
    1370    203.87283     163068.6    72.266664    72.266665     36.05485          120    17688.077    18086.239   -37042.385    1829.3838   -2230.5221    -308.5279    72.266664    62.584768     36.05485   -422.68951   -311997.63 
    1380    205.06499    163068.03    72.266579     72.26658    36.054807          120    17258.036     18076.01   -36327.297    2288.2683   -1123.9818   -310.65988    72.266579    62.584694    36.054807   -331.08371   -312000.26 
    1390    204.46387    163067.23    72.266462    72.266463    36.054749          120    17570.954     18066.24   -35546.833    1970.2364   -924.40434   -704.36404    72.266462    62.584593    36.054749    30.120367   -311998.82 
    1400    205.26411    163066.53    72.266358    72.266358    36.054697          120    18406.104    19033.234   -34711.216    1595.8098   -1233.5965   -542.81653    72.266358    62.584502    36.054697    909.37383   -312000.09 
    1410    204.88565    163066.45    72.266346    72.266347    36.054691          120    18383.052    19262.558   -34110.874    1761.3026   -1955.2133   -186.21952    72.266346    62.584493    36.054691    1178.2452   -311998.66 
    1420    205.71174    163067.21    72.266459    72.266459    36.054747          120    18596.628        19085   -34472.229    1476.9561   -1473.9591   -396.35284    72.266459     62.58459    36.054747    1069.7998   -311999.61 
    1430    206.17882    163068.72    72.266682    72.266682    36.054858          120    18616.297    18277.275   -34957.678    1562.2818   -980.58325   -617.45655    72.266682    62.584783    36.054858    645.29786   -311999.79 
    1440    204.56171    163070.66    72.266968    72.266968    36.055001          120    18773.314    17439.611   -35471.679    1708.5119   -1217.5397   -1204.9574    72.266968    62.585031    36.055001    247.08187   -311995.48 
    1450    205.04177    163072.77     72.26728     72.26728    36.055157          120     19168.49    17575.576   -35283.095    1121.8871   -1135.1676    -1773.956     72.26728    62.585301    36.055157    486.99025   -311995.11 
    1460    206.09313    163075.18    72.267637    72.267637    36.055335          120    19052.061     18290.63    -34627.36    943.47379   -1281.6148   -1011.4219    72.267637     62.58561    36.055335    905.11045   -311995.83 
    1470    208.21139    163078.17    72.268078    72.268079    36.055555          120     19191.43    18290.008   -33881.115    1073.6601   -1316.9132   -500.34216    72.268078    62.585992    36.055555    1200.1079   -311998.35 
    1480    207.07822    163081.97    72.268639     72.26864    36.055835          120    19746.583    18640.238   -33703.487    1586.1396   -1401.6982   -645.00835    72.268639    62.586478    36.055835    1561.1112   -311994.22 
    1490    206.38063    163086.75    72.269346    72.269347    36.056188          120    19962.976    18339.261   -34534.858    2003.2242   -1596.7999   -385.79377    72.269346     62.58709    36.056188    1255.7927   -311991.45 
    1500    209.73226    163092.31    72.270167    72.270167    36.056597          120    19466.197    18291.098    -35607.62     1843.646   -1139.9286     -535.982    72.270167    62.587801    36.056597    716.55807   -311995.97 
    1510    210.69316    163098.25    72.271044    72.271045    36.057035          120    18674.933    18001.693   -35605.367    2225.6522   -1275.5078   -704.22158    72.271044    62.588561    36.057035     357.0864   -311995.78 
    1520    208.25674    163104.32     72.27194    72.271941    36.057482          120    18074.475     18332.13   -35727.555    1968.9418   -1315.0792   -358.85295     72.27194    62.589337    36.057482    226.35038   -311989.34 
    1530    208.37805    163110.37    72.272834    72.272835    36.057928          120    17947.855    18580.696   -36124.483    1898.0808   -673.61082   -766.10659    72.272834    62.590111    36.057928    134.68905   -311987.59 
    1540    208.91584     163116.4    72.273725    72.273726    36.058373          120    18091.681    19620.532   -35338.595    2135.5282   -689.75022   -876.72524    72.273725    62.590883    36.058373    791.20596   -311986.62 
    1550    209.82933    163122.81    72.274671    72.274672    36.058845          120    18512.299    19245.475   -34769.071    1968.8936    -655.4941   -886.99969    72.274671    62.591702    36.058845    996.23409   -311986.36 
    1560    211.65627    163129.72    72.275691    72.275692    36.059353          120    18487.187    18494.041   -35537.408    1868.3998   -1405.8603   -765.17448    72.275691    62.592585    36.059353    481.27339   -311987.67 
    1570    211.27604    163136.78    72.276735    72.276736    36.059874          120     17569.44    18709.829   -36437.901     1738.624   -1702.6218   -616.53277    72.276735    62.593489    36.059874    -52.87722   -311985.29 
    1580    213.31304    163143.63    72.277746    72.277747    36.060379          120    17591.936    18228.507   -36690.295    1759.2497   -1627.0713   -855.97447    72.277746    62.594365    36.060379   -289.95065   -311987.19 
    1590    213.00391    163150.13    72.278706    72.278706    36.060857          120    18010.113    18804.996   -36341.995    1665.2528   -1443.0155   -1040.2068    72.278706    62.595196    36.060857    157.70469   -311984.75 
    1600    211.41664    163156.55    72.279654    72.279654     36.06133          120    18223.444    19208.007   -35848.335    1351.6445   -1326.5818   -1239.5172    72.279654    62.596017     36.06133    527.70561   -311979.99 
    1610    214.64837    163163.16     72.28063    72.280631    36.061817          120    18307.224    18912.139   -35500.327    1131.5514   -1370.9831   -878.12355     72.28063    62.596863    36.061817    573.01214   -311984.53 
    1620    213.91651    163169.99    72.281639    72.281639    36.062321          120    18424.564    17992.212   -35676.965    1236.6191   -1412.1782   -498.62168    72.281639    62.597736    36.062321    246.60365   -311981.46 
    1630    212.91312    163176.78    72.282641    72.282642    36.062821          120    18462.452    16995.666   -36209.964    1196.3708   -1309.4318   -552.26761    72.282641    62.598604    36.062821   -250.61536   -311978.73 
    1640    213.37208    163183.28    72.283601    72.283601    36.063299          120    18747.377     17319.91   -35443.463     1431.087   -1346.1484   -1156.3643    72.283601    62.599435    36.063299    207.94157   -311978.14 
    1650    215.18683    163189.68    72.284546    72.284547    36.063771          120    18382.669    17561.373   -36164.235    1754.0193   -1833.8023   -1275.1954    72.284546    62.600254    36.063771   -73.397707   -311980.15 
    1660     215.3545    163195.87     72.28546     72.28546    36.064227          120    17843.596     18069.07   -36328.479    1749.2861   -1499.0269   -1387.1022     72.28546    62.601045    36.064227   -138.60437   -311980.05 
    1670    216.89375     163201.8    72.286335    72.286336    36.064664          120    17482.028    18409.245   -35772.946    2075.6832   -1448.1789   -922.24261    72.286335    62.601803    36.064664    39.442111   -311982.38 
    1680    215.59214    163207.61    72.287193    72.287194    36.065092          120    17068.463     18558.79   -35155.592     1790.077   -1296.8653   -734.42205    72.287193    62.602546    36.065092    157.22034   -311979.44 
    1690    214.54123    163213.33    72.288037    72.288038    36.065513          120    17607.637    17046.674   -35905.849    1789.5498   -1165.3157   -411.91651    72.288037    62.603277    36.065513   -417.17945   -311978.05 
    1700    214.81713     163218.6    72.288816    72.288817    36.065902          120    17596.126    16565.058   -36573.062    2122.3872   -1801.3625   -426.54372    72.288816    62.603952    36.065902   -803.95928   -311978.76 
    1710    215.67616    163223.16    72.289489    72.289489    36.066237          120    16977.775     17015.81   -36994.361    2252.1985   -1862.5137   -726.60425    72.289489    62.604534    36.066237   -1000.2587   -311980.69 
    1720    213.22776    163226.88    72.290039    72.290039    36.066511          120    16557.844    18125.498   -37133.669    1672.9059   -2002.0522   -842.25733    72.290039    62.605011    36.066511   -816.77584   -311976.67 
    1730    214.97794    163229.95    72.290492    72.290492    36.066738          120    17261.432    18301.041   -36027.062    1528.0229   -1431.4369   -1239.9199    72.290492    62.605403    36.066738   -154.86307   -311980.79 
    1740    215.17851    163232.73    72.290902    72.290902    36.066942          120    17252.798    17552.145   -36596.658    1604.3405   -1446.9691   -1145.0434    72.290902    62.605758    36.066942   -597.23808    -311981.9 
    1750    212.82334    163235.03    72.291241    72.291241    36.067111          120    17239.608    16886.626   -36182.971    1469.5132    -1532.981   -1269.3474    72.291241    62.606052    36.067111   -685.57907   -311978.36 
    1760    215.27928    163236.73    72.291493    72.291494    36.067237          120    17635.818    16420.089   -36647.603    1640.3981   -1595.9461   -1061.4158    72.291493     62.60627    36.067237   -863.89845    -311984.3 
    1770    213.05653    163237.83    72.291654    72.291655    36.067317          120    18336.378    16919.209   -35980.802    1884.7218   -1853.6522   -498.20283    72.291654     62.60641    36.067317   -241.73816   -311981.03 
    1780    213.24914    163238.66    72.291778    72.291778    36.067379          120    17878.565    17523.244   -36137.142    2192.2791   -1872.5502   -457.57736    72.291778    62.606516    36.067379   -245.11126   -311982.95 
    1790    214.06166    163239.32    72.291874    72.291875    36.067427          120    17896.544    17572.139   -35926.508      2378.73   -2772.9141    -220.8627    72.291874      62.6066    36.067427   -152.60822    -311986.3 
    1800    211.85377    163239.86    72.291954    72.291954    36.067467          120    17779.566    17546.614    -35234.04    2300.6274   -2060.3185   -491.70939    72.291954    62.606669    36.067467    30.713415   -311983.12 
    1810    212.66333    163240.38     72.29203    72.292031    36.067505          120    17781.197    17415.867     -36115.1    2090.4711   -1546.3539   -749.85834     72.29203    62.606736    36.067505   -306.01206   -311986.58 
    1820    210.49639    163240.66    72.292072    72.292073    36.067526          120    17373.444    17210.861   -36275.975    1952.5761   -1150.4035   -667.57562    72.292072    62.606772    36.067526   -563.89009   -311984.24 
    1830    210.67533    163240.52    72.292051    72.292052    36.067516          120    17855.482     16812.45   -36966.035    1355.6334    -1216.315   -496.54387    72.292051    62.606754    36.067516   -766.03441   -311986.32 
    1840    210.85597    163239.83     72.29195    72.291951    36.067465          120    17195.573    17165.358   -36784.355    1268.3946   -1764.6769   -272.72146     72.29195    62.606666    36.067465   -807.80802   -311988.79 
    1850     210.3213    163238.54     72.29176    72.291761     36.06737          120    16775.793    17282.485    -37049.55    1359.5329   -2320.8199   -657.11033     72.29176    62.606501     36.06737   -997.09083   -311989.58 
    1860    211.04595    163236.57    72.291469     72.29147    36.067225          120    16983.488    17572.604   -36694.546    1499.5407   -2320.9393   -479.78243    72.291469    62.606249    36.067225   -712.81785   -311992.73 
    1870    207.31308    163234.16    72.291114    72.291114    36.067048          120    17280.026    18208.043   -35662.864    1940.7373   -1516.6161   -39.754106    72.291114    62.605942    36.067048   -58.265239   -311987.56 
    1880    209.87593    163231.73    72.290754    72.290755    36.066869          120    17062.265    18049.913   -35676.529    1996.5762   -1774.5381    84.161324    72.290754     62.60563    36.066869   -188.11705   -311993.64 
    1890    208.00275    163229.22    72.290384    72.290384    36.066684          120    17222.471    17392.768   -36160.214    1339.8285   -1585.6959   -433.87942    72.290384    62.605309    36.066684   -514.99175   -311992.06 
    1900    207.04492    163226.38    72.289964    72.289965    36.066474          120    17239.379    16717.744   -36775.242    1427.0528   -1018.1863   -527.20864    72.289964    62.604946    36.066474   -939.37311   -311992.14 
    1910    208.95376    163222.91    72.289452    72.289453    36.066219          120    16910.831    16466.853   -37435.093    1401.4058   -1341.7826   -847.08216    72.289452    62.604503    36.066219   -1352.4696   -311997.57 
    1920    207.16036     163218.6    72.288816    72.288817    36.065901          120    16836.685    16939.791   -36462.336    1417.5072   -1417.9289   -1303.6095    72.288816    62.603952    36.065901   -895.28674   -311995.64 
    1930     207.0285    163213.74    72.288098    72.288098    36.065543          120     16761.22    17720.087   -35580.472    1648.1377   -1689.8133   -1284.8422    72.288098     62.60333    36.065543   -366.38839   -311997.04 
    1940    207.15618    163208.72    72.287357    72.287358    36.065174          120     17444.22    17648.571   -35004.618    1518.3818   -1838.2639   -738.37109    72.287357    62.602688    36.065174    29.391102   -311998.69 
    1950    206.00217    163203.84    72.286637    72.286637    36.064814          120     18033.31    17358.778   -35129.302    1604.5676   -2174.2547   -197.96432    72.286637    62.602064    36.064814    87.595384   -311998.13 
    1960    206.12309    163199.11    72.285939     72.28594    36.064466          120    18305.978    16505.899   -35805.038    1735.5853   -1799.7486    -506.9016    72.285939     62.60146    36.064466   -331.05356   -311999.01 
    1970    206.97437    163194.29    72.285227    72.285228    36.064111          120    18697.174    16283.895    -36468.62    1637.5217   -1603.5613   -160.91195    72.285227    62.600844    36.064111   -495.85024   -312001.75 
    1980    204.22303    163189.22    72.284479    72.284479    36.063738          120    18333.201    16607.373   -36902.602    1689.8683   -1841.0665    208.24344    72.284479    62.600196    36.063738   -654.00954   -311996.91 
    1990    204.08047    163183.81     72.28368     72.28368    36.063339          120    17506.635    17271.339   -37060.759     2080.801   -1689.0924    -806.3357     72.28368    62.599503    36.063339   -760.92841   -311997.45 
    2000    204.29838    163177.99     72.28282    72.282821     36.06291          120    17481.635    17258.075   -36778.495    2226.9262   -1491.0541   -1160.9779     72.28282    62.598759     36.06291   -679.59515   -311998.04 
    2010    205.68669     163171.8    72.281906    72.281907    36.062454          120    17444.976     16879.13   -36316.117    1890.6114   -1419.0334   -888.44812    72.281906    62.597968    36.062454   -664.00364   -312001.09 
    2020    205.52055    163165.31    72.280948    72.280949    36.061976          120    18582.751     16464.76   -35822.481    1841.8804   -1996.3079   -1133.1701    72.280948    62.597138    36.061976   -258.32335   -312000.53 
    2030    206.03775    163158.77    72.279983    72.279983    36.061494          120    18618.647    16883.083   -35371.213    1709.9392   -2536.2422   -878.93247    72.279983    62.596302    36.061494     43.50571   -312001.26 
    2040    205.03435    163152.44    72.279047    72.279048    36.061028          120    18424.742    17891.049   -35311.802    1604.8382   -2891.4395   -538.88528    72.279047    62.595492    36.061028    334.66295   -311999.03 
    2050    207.64138     163146.5     72.27817    72.278171     36.06059          120    18532.414    17770.937   -35209.385    1955.1182   -2770.3697   -1108.7449     72.27817    62.594732     36.06059    364.65519   -312003.75 
    2060    207.36837       163141    72.277357    72.277358    36.060184          120    18337.986    18061.586    -34866.77    1975.2444   -2653.3811   -1994.3958    72.277357    62.594028    36.060184    510.93404   -312002.71 
    2070    205.30998    163136.01    72.276621    72.276622    36.059817          120    18514.076    18506.123   -34914.738    2229.3841   -1805.7266   -1386.5425    72.276621    62.593391    36.059817    701.82045   -311998.32 
    2080    206.59187    163131.62    72.275973    72.275973    36.059494          120    18118.675    18588.871    -35782.57     2319.799    -1687.392   -616.16689    72.275973    62.592829    36.059494    308.32531   -311999.93 
    2090    205.79532    163127.59    72.275378    72.275378    36.059197          120    18038.063     18007.79   -35495.376    2686.3105   -1760.6874   -1060.9999    72.275378    62.592314    36.059197    183.49223   -311997.54 
    2100     207.3026     163123.8    72.274818    72.274818    36.058917          120    18517.792    17695.123   -35383.628    2085.4509   -1302.2709   -572.21261    72.274818    62.591829    36.058917    276.42903   -311999.08 
    2110    205.44849    163120.35    72.274309    72.274309    36.058664          120    19161.128    17752.669   -34389.325    1731.6981   -1463.4845   -728.26545    72.274309    62.591388    36.058664    841.49077    -311994.5 
    2120    207.33347    163117.55    72.273894    72.273895    36.058457          120    18899.498    17471.396   -34156.154    1369.6081   -1802.0739   -1420.8272    72.273894    62.591029    36.058457    738.24669   -311996.49 
    2130     206.3742     163115.4    72.273576    72.273577    36.058298          120    18324.442    18421.126   -33566.796    918.81099   -1922.4141   -692.46049    72.273576    62.590754    36.058298    1059.5908   -311993.26 
    2140    209.27234    163114.02    72.273374    72.273374    36.058197          120    18244.541    18399.082   -34113.783    846.06614     -1997.79   -1001.3074    72.273374    62.590578    36.058197     843.2799   -311996.82 
    2150    209.36628    163113.32    72.273269     72.27327    36.058145          120    18242.829    18083.923   -34229.204    1315.8659   -1847.8153   -890.23139    72.273269    62.590488    36.058145    699.18305   -311995.09 
    2160    210.32719    163113.15    72.273245    72.273245    36.058133          120    18754.005    17965.384   -34183.284    1189.1913   -1725.7337   -693.86711    72.273245    62.590467    36.058133    845.36812   -311994.76 
    2170      210.077    163113.57    72.273306    72.273307    36.058163          120    18856.968    18174.894   -34863.313    695.66564   -1389.2432   -933.94835    72.273306     62.59052    36.058163    722.84944   -311992.87 
    2180    210.75173    163114.54     72.27345    72.273451    36.058235          120    18844.208     18582.12   -34786.256    670.93474   -1010.0025   -1358.3255     72.27345    62.590645    36.058235    880.02372   -311992.59 
    2190    211.21045    163116.11    72.273682    72.273683    36.058351          120    18339.316    18968.634   -35318.015    1123.9113   -1378.4622   -898.52508    72.273682    62.590846    36.058351    663.31177   -311991.71 
    2200    210.75548    163118.18    72.273988    72.273988    36.058503          120    18365.174    19210.686   -34858.059    1493.9507    -1348.422   -897.37659    72.273988     62.59111    36.058503    905.93347   -311989.17 
    2210    212.49534    163120.83    72.274378    72.274379    36.058698          120    18605.833    18443.823   -34239.321    1475.6859   -1386.2673   -1027.5897    72.274378    62.591448    36.058698    936.77841   -311990.99 
    2220    211.02525    163124.08    72.274859     72.27486    36.058938          120    18234.511    18452.017   -34136.282    1330.4512    -2098.276   -804.17413    72.274859    62.591865    36.058938    850.08171   -311986.25 
    2230    212.03736    163127.89    72.275422    72.275423    36.059219          120    17970.059    18372.839   -33593.943    1179.3558   -2227.2882   -721.43209    72.275422    62.592352    36.059219     916.3184    -311986.6 
    2240    212.85029    163132.27    72.276069     72.27607    36.059542          120    18095.686    18440.403   -33785.975    1186.8528   -1674.2516   -227.97074    72.276069    62.592913    36.059542    916.70445   -311986.91 
    2250    212.66467     163137.2    72.276797    72.276797    36.059905          120    18456.741    18150.101   -34227.513    1487.8329   -1446.3775    139.01741    72.276797    62.593543    36.059905    793.11006   -311985.42 
    2260    213.45558     163142.6    72.277595    72.277595    36.060303          120    18694.606     18174.73    -34103.83    1971.8811    -1271.609   -250.09068    72.277595    62.594234    36.060303    921.83531   -311985.68 
[...]
   99200    210.78455    163492.41    72.329216    72.329216    36.086058          120    17661.189    17898.965   -36118.855    878.92739   -825.15435    309.13399    72.329216    62.638939    36.086058   -186.23371   -312043.03 
   99210    209.56695    163490.45    72.328928    72.328928    36.085914          120    17442.417     18348.56   -35514.607    895.51096   -481.49786   -347.47134    72.328928     62.63869    36.085914    92.123616   -312040.89 
   99220    210.14677    163488.53    72.328645    72.328645    36.085773          120    17128.898    17926.279   -35643.024    1281.5218   -176.75283   -254.80944    72.328645    62.638444    36.085773   -195.94912   -312042.34 
   99230     210.8035    163486.47    72.328341    72.328341    36.085621          120    17603.583    17565.331   -36044.123    1671.2161   -56.052733   -486.33743    72.328341    62.638181    36.085621    -291.7362   -312044.05 
   99240    211.58883    163484.24    72.328012    72.328013    36.085457          120    18740.975    17905.344   -35896.105    1220.7146   -64.317085   -257.54523    72.328012    62.637896    36.085457    250.07116   -312045.39 
   99250    211.79815    163482.13      72.3277      72.3277    36.085301          120     18546.12    17605.138    -36240.15    1717.7889   -221.36369    292.91254      72.3277    62.637626    36.085301   -29.630609   -312045.97 
   99260    209.79799    163479.96     72.32738     72.32738    36.085141          120     18051.71    17215.434   -37003.834    1576.6961   -142.28319    25.307913     72.32738    62.637349    36.085141   -578.89669   -312042.36 
   99270    210.32032    163477.42    72.327006    72.327007    36.084955          120    18452.018    17714.022   -36825.819    1791.0268   -908.87865    710.46481    72.327006    62.637026    36.084955   -219.92655   -312043.29 
   99280    209.83773    163474.73    72.326608    72.326609    36.084757          120    18927.746    18494.262   -36613.343    1469.4842    -803.8645    848.46769    72.326608    62.636681    36.084757    269.55513      -312043 
   99290    209.36404     163472.2    72.326236    72.326237    36.084571          120    18717.297    18719.318   -35876.713    1516.4275   -1232.1124    135.88986    72.326236    62.636358    36.084571    519.96744   -312043.38 
   99300    210.80286    163470.02    72.325915    72.325915     36.08441          120    18297.375    18269.136   -35509.696    1412.6925   -998.19769   -158.03676    72.325915     62.63608     36.08441    352.27195   -312046.61 
   99310    209.63333    163468.11    72.325633    72.325633     36.08427          120    19045.704    18339.133   -36339.518    1242.3446    -381.7639    12.890339    72.325633    62.635836     36.08427    348.43964   -312044.11 
   99320    208.98474    163466.45    72.325388    72.325389    36.084148          120    19561.385    18120.447   -36491.413    1137.5918   -191.52246     30.28228    72.325388    62.635624    36.084148    396.80633   -312042.98 
   99330     208.5429    163465.07    72.325184    72.325184    36.084046          120    18525.306    18272.935    -35647.14    648.73714   -141.23833    -696.9531    72.325184    62.635447    36.084046    383.70041   -312042.71 
   99340    210.03108    163463.98    72.325023    72.325024    36.083966          120    18296.826     18661.59   -35359.229    934.95174   -529.25929    -822.3455    72.325023    62.635308    36.083966    533.06248   -312046.33 
   99350     209.5855    163463.29    72.324922    72.324923    36.083915          120    18641.605     19131.09     -35479.7     1198.812   -613.25741   -1.9420029    72.324922    62.635221    36.083915    764.33184   -312045.87 
   99360    208.79955    163463.19    72.324907    72.324908    36.083908          120    18767.392    18913.346   -34387.954     1173.083    -464.1529    400.37243    72.324907    62.635208    36.083908    1097.5948   -312044.91 
   99370    210.47746    163463.88     72.32501     72.32501    36.083959          120    19382.728    18055.058   -34296.472    1126.7491   -497.40566   -350.37555     72.32501    62.635296    36.083959    1047.1049    -312048.7 
   99380    207.87619    163465.35    72.325226    72.325226    36.084067          120    19235.824    18061.605   -34818.296    1459.5887   -293.48739    -190.3063    72.325226    62.635483    36.084067    826.37762   -312043.88 
   99390    208.43379    163467.43    72.325532    72.325532    36.084219          120    18883.847    18766.386   -35620.635     1352.019    123.49578   -47.889878    72.325532    62.635748    36.084219    676.53289   -312045.57 
   99400    208.39522    163469.98    72.325909     72.32591    36.084408          120    18563.362    18583.629   -36096.051    1872.8731   -142.02005    155.49913    72.325909    62.636075    36.084408    350.31334   -312046.01 
   99410     208.8931    163472.83    72.326329     72.32633    36.084617          120    18322.079    17919.162    -35134.07    1347.3618   -386.33721    279.46299    72.326329    62.636439    36.084617    369.05671   -312047.56 
   99420    209.39789    163475.99    72.326794    72.326795    36.084849          120    18615.537    17950.443    -34893.69    1179.2517   -295.26431   -144.51805    72.326794    62.636842    36.084849    557.43009   -312049.01 
   99430    208.51403    163479.53    72.327317    72.327317     36.08511          120     18353.23    17786.264   -35273.034    1539.9862   -585.75947    -434.8833    72.327317    62.637294     36.08511    288.82004   -312047.74 
   99440    208.96299    163483.31    72.327874    72.327875    36.085388          120     18495.21     18015.03   -35839.912     1482.089    -603.7875   -423.27528    72.327874    62.637777    36.085388    223.44253   -312048.86 
   99450    207.12263    163487.28     72.32846     72.32846     36.08568          120    18166.164    18181.569   -35652.837    1536.5829   -580.36477    97.534212     72.32846    62.638284     36.08568    231.63207   -312045.52 
   99460    208.00673    163491.39    72.329065    72.329066    36.085982          120    17564.808    17666.001   -36266.139    1394.7895   -726.38228    412.60845    72.329065    62.638809    36.085982   -345.10999   -312047.52 
   99470    208.74283    163495.25    72.329635    72.329636    36.086267          120    16897.968    17281.039   -36818.828    1087.6802   -351.25272    154.40281    72.329635    62.639302    36.086267   -879.94044   -312049.02 
   99480    207.67866    163498.48    72.330112    72.330113    36.086505          120    16926.738    17048.072   -37597.292    1375.1528   -621.32922    144.40745    72.330112    62.639715    36.086505   -1207.4937   -312047.22 
   99490    208.28558    163500.87    72.330463    72.330464     36.08668          120    17038.033    17501.186    -37432.81    1216.0125   -299.88157     559.8874    72.330463    62.640019     36.08668   -964.53025   -312048.85 
   99500    208.22611    163502.53    72.330709    72.330709    36.086802          120    17504.835     17665.39   -36857.069    686.07208   -387.27082    504.64001    72.330709    62.640232    36.086802   -562.28129   -312047.98 
   99510    208.13221     163503.8    72.330896    72.330897    36.086896          120    18186.362    18133.951   -36151.348    1224.9463   -39.804081    65.783813    72.330896    62.640394    36.086896    56.321772   -312047.57 
   99520    207.54232    163505.11    72.331089     72.33109    36.086992          120    18233.803    18492.535   -35504.789    1686.4095   -79.714028    531.22162    72.331089    62.640561    36.086992    407.18306   -312045.95 
   99530    208.25729    163506.64    72.331315    72.331316    36.087105          120    17607.026    17769.397   -35939.002    2069.2116    179.17596   -25.855208    72.331315    62.640757    36.087105   -187.52625   -312046.91 
   99540    208.90243    163508.07    72.331526    72.331526     36.08721          120    17404.841    17654.108   -35991.277    1477.1806    452.59084   -325.04748    72.331526    62.640939     36.08721   -310.77622   -312047.21 
   99550    209.09183    163509.27    72.331702    72.331703    36.087298          120    17468.249    17734.403   -36435.328    862.83839   -37.596488   -262.40066    72.331702    62.641092    36.087298   -410.89224   -312047.08 
   99560    208.90596    163510.14    72.331831    72.331832    36.087362          120    16678.238    18200.668    -36817.84    651.03011   -367.50306   -249.01019    72.331831    62.641204    36.087362   -646.31146   -312045.02 
   99570    210.30042    163510.57    72.331894    72.331894    36.087393          120    16977.647    17646.929   -36167.476    1038.1351   -869.43601   -259.41027    72.331894    62.641258    36.087393    -514.2998    -312046.4 
   99580    210.89438    163510.61      72.3319    72.331901    36.087397          120     17360.76    17557.563     -36141.5    1567.9909    -540.2571   -232.57657      72.3319    62.641264    36.087397   -407.72558   -312046.07 
   99590     209.8384    163510.35    72.331861    72.331862    36.087377          120    17983.903    17832.831   -36976.718    1831.0601   -442.24484    80.412757    72.331861     62.64123    36.087377   -386.66138   -312043.18 
   99600     210.2812    163509.78    72.331778    72.331779    36.087336          120    18160.156    17093.738    -36368.94    1773.8056   -321.16219    237.65923    72.331778    62.641158    36.087336   -371.68203    -312043.1 
   99610    209.44678    163508.97    72.331659     72.33166    36.087276          120    18457.142    17464.263   -35223.371    1831.3939    -260.4294    376.73667    72.331659    62.641055    36.087276     232.6779   -312040.46 
   99620    210.21744    163508.34    72.331565    72.331566     36.08723          120    18315.122    18752.641   -34708.645    1140.6245   -14.957275    123.94297    72.331565    62.640974     36.08723    786.37267   -312041.55 
   99630    211.36564    163508.23     72.33155     72.33155    36.087222          120    18845.943    18545.552   -35561.057    920.69939    257.78003   -434.16111     72.33155     62.64096    36.087222    610.14591   -312043.36 
   99640    210.48954    163508.58      72.3316    72.331601    36.087247          120    18979.936    18261.089    -36227.02    1431.9432    641.30253   -634.87866      72.3316    62.641004    36.087247    338.00165   -312041.28 
   99650    210.10176    163509.16    72.331687    72.331687     36.08729          120    18580.492    18155.086   -35860.557    1518.4162    -146.8313   -755.15386    72.331687    62.641079     36.08729    291.67368   -312040.75 
   99660    210.81356    163509.98    72.331807    72.331807     36.08735          120    18586.191    18237.664    -35858.65    1807.0789    -96.38673   -631.28111    72.331807    62.641183     36.08735    321.73512   -312042.07 
   99670    210.78182    163510.99    72.331956    72.331957    36.087425          120    18106.982    17812.012   -36634.338    1877.6072     -3.45528   -203.59348    72.331956    62.641312    36.087425   -238.44802   -312041.43 
   99680    211.22145    163511.89    72.332088    72.332089    36.087491          120    18106.513    18112.796   -36233.882    1521.3505   -139.31874    63.125771    72.332088    62.641427    36.087491   -4.8576945   -312042.23 
   99690    211.86388    163512.78     72.33222     72.33222    36.087556          120    18014.086    18429.925   -35727.088    1386.5082    -335.0192    -712.6366     72.33222     62.64154    36.087556    238.97442   -312042.93 
   99700    211.21415    163513.86    72.332379     72.33238    36.087636          120    19139.872    18033.567    -35946.58    1315.1361    -148.3139    104.36257    72.332379    62.641678    36.087636    408.95298   -312041.65 
   99710     212.1053    163515.22     72.33258     72.33258    36.087736          120    18891.511    18141.768   -36409.402    1466.7158     -238.169    496.06787     72.33258    62.641852    36.087736    207.95878   -312043.62 
   99720    210.18238    163516.76    72.332806    72.332807    36.087849          120    18313.138    18252.399   -36222.538    1771.7803    -677.9547    321.10578    72.332806    62.642048    36.087849    114.33301   -312040.39 
   99730     211.2292     163518.4    72.333048    72.333049     36.08797          120    18902.946    17909.027   -36011.436    1874.6351   -271.46978    368.13771    72.333048    62.642258     36.08797    266.84591   -312042.84 
   99740    209.93457    163520.23    72.333319     72.33332    36.088105          120    19016.061     17776.41   -36194.224    1745.4872   -199.06004   -24.841412    72.333319    62.642493    36.088105     199.4159   -312040.28 
   99750    211.23909    163522.22    72.333611    72.333612    36.088251          120    18708.225    17827.359    -36619.89    1473.4325    52.900395    -159.4225    72.333611    62.642746    36.088251   -28.102075   -312043.12 
   99760    210.51386     163524.2    72.333904    72.333904    36.088396          120    18074.458    17410.962   -35523.204    715.07769   -568.54644    189.62783    72.333904    62.642999    36.088396   -12.594489   -312041.68 
   99770    211.58487    163526.14    72.334191    72.334191     36.08854          120    17864.336    17059.219   -35658.157      1295.43   -475.17881   -56.888086    72.334191    62.643247     36.08854   -244.86729   -312044.11 
   99780    209.68348    163527.95    72.334457    72.334457    36.088672          120    18402.006    17592.723   -36346.516    1316.8015    -8.670215   -286.71491    72.334457    62.643478    36.088672   -117.26227   -312040.79 
   99790    211.43973    163529.66     72.33471     72.33471    36.088798          120    18369.367    17960.049   -36189.372    1283.4358   -265.09994    3.1906173     72.33471    62.643697    36.088798    46.681638   -312044.03 
   99800    210.22807    163531.41    72.334967    72.334968    36.088927          120    18448.842    17832.559   -35896.338    1671.7394      -554.55    487.59742    72.334967     62.64392    36.088927    128.35429   -312042.34 
   99810    211.23847    163533.22    72.335234    72.335234     36.08906          120    18168.281    17528.941   -36619.816    1164.9602   -271.29013    435.64347    72.335234     62.64415     36.08906   -307.53133   -312045.47 
   99820    209.61886    163534.81    72.335469    72.335469    36.089177          120    17568.838    17544.522   -37148.624    1277.9589   -478.53327    63.240015    72.335469    62.644354    36.089177   -678.42131   -312042.52 
   99830    208.55048    163535.91     72.33563     72.33563    36.089258          120    17279.873    17403.553   -37386.672    1243.8308   -414.56989    -283.7967     72.33563    62.644494    36.089258   -901.08161   -312040.45 
   99840    208.97151    163536.37    72.335698    72.335698    36.089292          120    16986.334    17477.775   -36293.231    1498.4947   -506.50677    22.003002    72.335698    62.644553    36.089292   -609.70737   -312041.77 
   99850    210.63958     163536.4    72.335703    72.335704    36.089294          120    17541.744    17978.989   -35537.324    1812.5783   -442.30094   -185.30996    72.335703    62.644557    36.089294   -5.5299932   -312045.15 
   99860    210.61341    163536.42    72.335705    72.335706    36.089295          120    18291.479    18397.215   -35795.734    1470.0629   -74.022979    -49.45339    72.335705    62.644559    36.089295    297.65371   -312045.82 
   99870    210.53363    163536.63    72.335737    72.335738    36.089311          120    18368.964    18101.353   -36142.356    1336.6153    189.42334    413.77323    72.335737    62.644587    36.089311    109.32043   -312046.14 
   99880    210.62343    163536.92    72.335779     72.33578    36.089332          120    17645.419    17472.203   -36280.914    1014.6022    385.23768    -159.5108    72.335779    62.644623    36.089332   -387.76409   -312046.49 
   99890     210.1869    163536.93    72.335781    72.335781    36.089333          120    17670.051    17310.141   -37066.011    741.66155    -776.6651   -57.468355    72.335781    62.644624    36.089333   -695.27298   -312045.93 
   99900    209.20081    163536.44    72.335708    72.335709    36.089297          120    17777.704    17746.785   -37502.741    951.57561   -494.91893   -347.73393    72.335708    62.644562    36.089297    -659.4171   -312044.18 
   99910    207.49668    163535.44    72.335561    72.335562    36.089223          120     17882.96    17692.404   -37095.812    1039.8395   -745.33555   -43.218661    72.335561    62.644434    36.089223   -506.81628   -312041.46 
   99920    209.65815    163534.07    72.335359     72.33536    36.089122          120     18595.29    17283.125   -36278.579    1217.3841   -710.39642    69.883292    72.335359    62.644259    36.089122   -133.38791    -312046.3 
   99930    210.02651    163532.61    72.335143    72.335144    36.089015          120    18033.813    17969.067   -35140.516    1581.5422   -907.59083     55.12655    72.335143    62.644072    36.089015    287.45483   -312047.46 
   99940    207.76342    163531.32    72.334953    72.334954     36.08892          120    18360.964    18161.992   -35965.437    1167.7852   -851.69584    448.26695    72.334953    62.643908     36.08892     185.8397   -312043.61 
   99950    209.84589    163530.16    72.334783    72.334784    36.088835          120    18541.025    18493.322   -36499.216    1315.7633   -683.23589   -184.61626    72.334783    62.643761    36.088835     178.3766   -312048.06 
   99960    210.04743    163529.14    72.334633    72.334633     36.08876          120    17868.542    18391.976   -35820.324    1514.6584   -773.89922   -691.57598    72.334633     62.64363     36.08876    146.73125   -312048.89 
   99970    208.37298     163528.2    72.334494    72.334494    36.088691          120    17578.421    17767.167    -36168.42    1190.8204   -753.60947   -457.80452    72.334494     62.64351    36.088691   -274.27711   -312046.02 
   99980    208.18246    163527.08    72.334328    72.334329    36.088608          120    17482.171    18034.709   -36522.223    1085.8602   -443.65437    190.46294    72.334328    62.643366    36.088608   -335.11419   -312045.91 
   99990    207.94758    163525.73     72.33413     72.33413    36.088509          120     17684.29    17950.888     -36003.4    1392.6495   -158.06839    234.32918     72.33413    62.643195    36.088509   -122.74085    -312045.6 
  100000    207.60008    163524.27    72.333915    72.333915    36.088402          120     18014.06    17536.497   -35681.334    1770.8193   -169.20113   -170.57691    72.333915    62.643008    36.088402   -43.592416   -312045.08 
Loop time of 37683.2 on 1 procs for 100000 steps with 14848 atoms

Performance: 0.229 ns/day, 104.676 hours/ns, 2.654 timesteps/s
97.5% CPU use with 1 MPI tasks x no OpenMP threads

MPI task timing breakdown:
Section |  min time  |  avg time  |  max time  |%varavg| %total
---------------------------------------------------------------
Pair    | 31794      | 31794      | 31794      |   0.0 | 84.37
Bond    | 0.057369   | 0.057369   | 0.057369   |   0.0 |  0.00
Kspace  | 1420.7     | 1420.7     | 1420.7     |   0.0 |  3.77
Neigh   | 3563.7     | 3563.7     | 3563.7     |   0.0 |  9.46
Comm    | 46.53      | 46.53      | 46.53      |   0.0 |  0.12
Output  | 1.3483     | 1.3483     | 1.3483     |   0.0 |  0.00
Modify  | 840.98     | 840.98     | 840.98     |   0.0 |  2.23
Other   |            | 16.1       |            |       |  0.04

Nlocal:    14848 ave 14848 max 14848 min
Histogram: 1 0 0 0 0 0 0 0 0 0
Nghost:    46787 ave 46787 max 46787 min
Histogram: 1 0 0 0 0 0 0 0 0 0
Neighs:    1.00641e+07 ave 1.00641e+07 max 1.00641e+07 min
Histogram: 1 0 0 0 0 0 0 0 0 0

Total # of neighbors = 10064113
Ave neighs/atom = 677.809
Ave special neighs/atom = 0
Neighbor list builds = 10781
Dangerous builds = 0
 
All done!
Total wall time: 10:34:35
