LAMMPS (16 Mar 2018)
Reading data file ...
  triclinic box = (0 0 0) to (9.208 7.97436 18.376) with tilt (-4.604 0 0)
  1 by 1 by 1 MPI processor grid
  reading atoms ...
  116 atoms
Finding 1-2 1-3 1-4 neighbors ...
  special bond factors lj:   0          0          0         
  special bond factors coul: 0          0          0         
  0 = max # of 1-2 neighbors
  0 = max # of 1-3 neighbors
  0 = max # of 1-4 neighbors
  1 = max # of special neighbors
Replicating atoms ...
  triclinic box = (0 0 0) to (73.664 63.7949 36.752) with tilt (-36.832 0 0)
  1 by 1 by 1 MPI processor grid
  14848 atoms
Finding 1-2 1-3 1-4 neighbors ...
  special bond factors lj:   0          0          0         
  special bond factors coul: 0          0          0         
  0 = max # of 1-2 neighbors
  0 = max # of 1-3 neighbors
  0 = max # of 1-4 neighbors
  1 = max # of special neighbors
  Time spent = 0.00403214 secs
PPPM initialization ...
WARNING: System is not charge neutral, net charge = -0.2048 (../kspace.cpp:302)
  using 12-bit tables for long-range coulomb (../kspace.cpp:321)
  G vector (1/distance) = 0.201681
  grid = 36 50 24
  stencil order = 5
  estimated absolute RMS force accuracy = 0.00105653
  estimated relative force accuracy = 7.33721e-05
  using double precision FFTs
  3d grid and FFT values/proc = 65395 43200
Neighbor list info ...
  update every 1 steps, delay 0 steps, check yes
  max neighbors/atom: 2000, page size: 100000
  master list distance cutoff = 15.3
  ghost atom cutoff = 15.3
  binsize = 7.65, bins = 15 9 5
  3 neighbor lists, perpetual/occasional/extra = 3 0 0
  (1) pair morse, perpetual
      attributes: half, newton on
      pair build: half/bin/newton/tri
      stencil: half/bin/3d/newton/tri
      bin: standard
  (2) pair buck, perpetual, copy from (1)
      attributes: half, newton on
      pair build: copy
      stencil: none
      bin: none
  (3) pair lj/cut/coul/long, perpetual, copy from (1)
      attributes: half, newton on
      pair build: copy
      stencil: none
      bin: none
Setting up Verlet run ...
  Unit style    : metal
  Current step  : 0
  Time step     : 0.001
Per MPI rank memory allocation (min/avg/max) = 145.7 | 145.7 | 145.7 Mbytes
Step Temp Volume Cella Cellb Cellc CellGamma Pxx Pyy Pzz Pxy Pxz Pyz Lx Ly Lz Press PotEng 
       0          275    172711.88       73.664    73.664001       36.752          120   -208235.12   -208278.84    -279260.2    22.952749   -6.9953134     9.351862       73.664    63.794896       36.752   -231924.72   -309191.56 
      10    348.15749    172638.56    73.653575    73.653576    36.746799          120    -210027.2   -210115.01    -257221.1    112.97056   -23.434228   -170.38292    73.653575    63.785868    36.746799   -225787.77    -309364.8 
      20    615.33142    172423.25    73.622942    73.622943    36.731516          120   -207069.78   -206699.68   -197840.67    32.085379   -256.50296   -371.08321    73.622942    63.759339    36.731516   -203870.05   -309920.65 
      30    623.68515    172083.71    73.574584    73.574584    36.707389          120   -179844.84   -179425.43   -118375.46   -205.17164   -820.94361   -446.86557    73.574584    63.717459    36.707389   -159215.24    -309998.5 
      40    405.94428     171657.2    73.513749    73.513749    36.677038          120   -134453.42    -134635.9   -38651.161   -623.98976   -1146.0958   -482.09667    73.513749    63.664775    36.677038   -102580.16    -309626.1 
      50    491.90864    171193.41    73.447482    73.447483    36.643976          120   -93021.161    -93600.16    -5834.349   -677.87744   -1194.5704   -619.24556    73.447482    63.607386    36.643976    -64151.89   -309819.37 
      60    790.12735    170732.85    73.381558    73.381558    36.611086          120   -68374.352   -68253.513   -43443.376   -653.91419   -2064.8421   -450.01903    73.381558    63.550294    36.611086   -60023.747   -310425.05 
      70    965.58248    170293.42    73.318547    73.318548    36.579649          120   -52689.685    -52473.55      -106501   -1635.5307   -2427.9658    -483.7163    73.318547    63.495725    36.579649   -70554.746   -310825.03 
      80    826.79703     169878.5    73.258951    73.258952    36.549916          120   -43497.772   -44314.952    -152544.4   -1764.6541   -2893.5762    81.265343    73.258951    63.444114    36.549916   -80119.041   -310628.56 
      90    559.68707    169486.91    73.202619     73.20262    36.521811          120    -38120.25   -38857.454   -167176.25   -2004.8448   -3357.3732   -359.66213    73.202619    63.395328    36.521811    -81384.65   -310171.22 
     100    575.97733    169118.62    73.149557    73.149558    36.495337          120   -22960.215   -23137.827   -147004.31   -1744.9853   -3112.9457   -812.16989    73.149557    63.349376    36.495337   -64367.452   -310245.29 
     110    747.85934    168779.09    73.100572    73.100572    36.470898          120   -3380.1326   -3672.7359    -104558.2   -1835.2725    -2116.508   -973.28964    73.100572    63.306953    36.470898   -37203.688   -310624.43 
     120    754.13535    168475.56    73.056724    73.056725    36.449022          120    7580.6653    7570.5385   -54299.466   -1843.3939   -1574.8553   -1476.4449    73.056724     63.26898    36.449022   -13049.421   -310690.86 
     130    650.81565    168211.26    73.018502    73.018502    36.429952          120     6322.652    7416.0162   -14877.482   -1740.5473   -1493.0199   -1447.1528    73.018502    63.235878    36.429952   -379.60466    -310539.9 
     140    602.63838    167983.16    72.985482    72.985482    36.413478          120     1552.438    1448.2973   -2334.5206   -1257.3425   -1283.0158   -1272.3057    72.985482    63.207282    36.413478    222.07158   -310485.84 
     150    652.74663    167782.94    72.956473    72.956474    36.399005          120   -6364.1193   -5209.5635   -24500.418   -1872.3083   -997.11776   -642.87287    72.956473     63.18216    36.399005     -12024.7   -310621.56 
     160    714.28414    167597.79    72.929627    72.929628    36.385611          120   -16722.552   -15079.937   -60142.859   -1631.5668   -1290.1391   -651.99067    72.929627     63.15891    36.385611   -30648.449   -310789.22 
     170    697.97499    167414.08     72.90297    72.902971    36.372312          120   -21640.666   -19507.468   -90560.405   -702.90869    -2129.799   -999.24619     72.90297    63.135825    36.372312   -43902.846   -310812.34 
     180    622.03637    167222.95    72.875216    72.875217    36.358465          120   -18685.091   -16857.859   -108064.68   -586.60486   -2375.2455   -1073.1209    72.875216    63.111789    36.358465    -47869.21   -310717.96 
     190    595.71976    167021.93    72.846004    72.846004     36.34389          120    -13853.92   -12642.318   -106957.38     87.13922   -1843.0481    -1109.247    72.846004     63.08649     36.34389   -44484.541   -310713.78 
     200    631.28239    166813.46    72.815683    72.815684    36.328763          120   -9529.2367   -8790.6442    -87994.21   -676.74428   -1916.7302    -965.2398    72.815683    63.060232    36.328763    -35438.03   -310828.05 
     210    639.60193    166603.18    72.785073    72.785074    36.313491          120   -4906.5635   -4111.2668   -64405.933   -1050.2664   -1769.0205   -754.35695    72.785073    63.033723    36.313491   -24474.588   -310891.91 
     220    616.31952    166397.56    72.755118    72.755118    36.298546          120   -1252.2734   -104.88813   -45009.877   -934.40776   -1358.0986   -1821.2974    72.755118    63.007781    36.298546   -15455.679    -310892.1 
     230    594.42146    166201.37    72.726512    72.726513    36.284274          120   -733.85907   -69.150936   -37175.351   -660.57457   -942.43841   -2369.5912    72.726512    62.983008    36.284274   -12659.454   -310892.95 
     240    593.17235    166015.66    72.699415    72.699416    36.270755          120   -2850.9167   -2224.6948   -41189.646   -334.27163   -1628.8953   -2334.3618    72.699415    62.959541    36.270755   -15421.752   -310932.06 
     250    606.21047    165838.26    72.673511    72.673511    36.257831          120   -5096.8622   -5096.3354   -54862.287    228.36067   -1547.3694   -2092.9634    72.673511    62.937107    36.257831   -21685.162   -311001.34 
     260    604.02174    165665.31    72.648239    72.648239    36.245222          120   -5793.8657   -6976.1166   -69292.318    523.31256   -1379.6953   -2461.7352    72.648239    62.915221    36.245222     -27354.1   -311042.75 
     270    580.36561    165493.61    72.623131    72.623132    36.232696          120   -4911.4538    -6273.211   -77307.188   -57.373578   -1259.4353   -1614.1995    72.623131    62.893477    36.232696   -29497.284   -311042.47 
     280    560.35015    165322.12    72.598038    72.598038    36.220177          120   -3040.2134   -3762.2142   -76628.934   -165.16332   -945.55781   -447.07577    72.598038    62.871746    36.220177   -27810.454   -311046.08 
     290    559.76808    165152.02     72.57313    72.573131     36.20775          120     -14.7011     295.3746   -67830.433    40.604084   -1183.2005   -370.22661     72.57313    62.850175     36.20775   -22516.587   -311086.34 
     300    559.59619    164986.25    72.548841    72.548842    36.195632          120    4108.6675     4453.594   -55072.628    88.369599   -1308.5847   -330.49134    72.548841     62.82914    36.195632   -15503.455   -311125.86 
     310    550.18083    164828.36     72.52569    72.525691    36.184081          120    6776.5859    7219.0439   -41537.572    296.09434   -1252.2981   -442.66339     72.52569    62.809091    36.184081   -9180.6474   -311146.14 
     320     538.5059    164680.96    72.504066    72.504066    36.173293          120    7385.4341    7963.9945   -33470.373    477.04675   -1558.0169   -1035.3988    72.504066    62.790364    36.173293   -6040.3148   -311161.46 
     330    533.15983    164544.71    72.484065    72.484065    36.163314          120    6031.9203    6977.3447   -33526.788    227.46654    -1503.525   -1041.2858    72.484065    62.773042    36.163314   -6839.1742   -311188.44 
     340    530.00589    164418.06    72.465463    72.465463    36.154033          120    4426.8425    5734.2903   -41417.288    221.11398   -1011.6532   -1051.4778    72.465463    62.756932    36.154033   -10418.719   -311218.58 
     350    524.37154    164298.08    72.447831    72.447832    36.145236          120    3820.8169    4273.4817   -51883.363    337.53856    67.858537   -643.92081    72.447831    62.741663    36.145236   -14596.355   -311243.77 
     360    507.37342    164181.85    72.430744    72.430744    36.136711          120    4177.8582     5463.858   -59121.037   -534.84496   -122.21218   -847.72201    72.430744    62.726865    36.136711   -16493.107    -311246.2 
     370    495.81194     164067.9    72.413982    72.413983    36.128349          120    5359.4371    8028.2227   -59501.834   -725.61806    -1485.343   -1141.1708    72.413982    62.712349    36.128349   -15371.391   -311257.82 
     380    492.85845    163956.45    72.397582    72.397582    36.120166          120    7486.7534    10420.691   -54636.179    -1108.836    -1308.816   -1068.0828    72.397582    62.698146    36.120166   -12242.912   -311285.15 
     390    489.44213     163848.8    72.381734    72.381735     36.11226          120    10066.373    11635.475   -46660.215   -1424.5526   -1384.5834   -1082.9853    72.381734    62.684421     36.11226   -8319.4558   -311310.97 
     400    478.26075    163746.64    72.366688    72.366688    36.104753          120    12464.513    13537.497   -37830.525    81.649765   -1638.9984   -796.01317    72.366688     62.67139    36.104753   -3942.8386   -311320.38 
     410    473.33504    163651.63    72.352688    72.352689    36.097768          120    13367.951    15434.666   -31602.949    328.48238   -1539.5201   -1383.9659    72.352688    62.659267    36.097768   -933.44405   -311341.96 
     420    470.67868    163564.54    72.339851    72.339851    36.091363          120    13377.068    15536.653   -31311.957    317.67433   -767.65326   -995.94292    72.339851    62.648149    36.091363   -799.41174   -311366.68 
     430     464.2313    163484.61    72.328066    72.328066    36.085484          120    12753.837    13591.987   -35237.156    678.36591   -1359.0937   -55.246985    72.328066    62.637943    36.085484   -2963.7776   -311383.46 
     440    458.40502       163410    72.317061    72.317062    36.079993          120    12552.563    12138.046   -41014.523    202.03841   -1815.1653    80.595433    72.317061    62.628413    36.079993   -5441.3045   -311401.41 
     450    448.17296    163338.84    72.306562    72.306563    36.074755          120    12707.107    12541.965   -45929.181     350.4258    -1520.046    74.606888    72.306562     62.61932    36.074755   -6893.3694   -311409.75 
     460    438.90402    163269.99    72.296402    72.296403    36.069686          120    13364.337    14197.187   -46838.307    823.34363   -823.12854   -414.03924    72.296402    62.610521    36.069686   -6425.5945   -311419.41 
     470     435.8734     163203.4    72.286572    72.286573    36.064782          120     15034.64    16202.629   -44726.092    949.20661   -245.52232   -356.63484    72.286572    62.602009    36.064782   -4496.2745   -311439.26 
     480    429.26645    163139.81    72.277182    72.277183    36.060097          120    16376.577    17191.579   -39449.783    650.47633    -253.9805    507.75213    72.277182    62.593877    36.060097   -1960.5421   -311452.49 
     490    423.21249    163080.22     72.26838    72.268381    36.055706          120     16892.26    18153.288   -34572.844    888.31431   -316.27299    601.40953     72.26838    62.586254    36.055706    157.56805   -311465.39 
     500    420.43918    163025.43    72.260286    72.260287    36.051668          120    18244.008    19528.531   -30957.814     802.6878    194.19236    649.55132    72.260286    62.579244    36.051668    2271.5749   -311484.27 
     510    416.01811    162976.05    72.252989     72.25299    36.048027          120    18631.879    19703.477   -30285.299    590.26355    730.30966    717.80434    72.252989    62.572925    36.048027    2683.3525   -311499.54 
     520    407.91762    162931.79    72.246449    72.246449    36.044764          120    18339.873    18459.664   -32594.321    589.31417    133.33424    161.05149    72.246449     62.56726    36.044764    1401.7387   -311507.15 
     530    402.99595    162891.61    72.240509     72.24051    36.041801          120    18443.012    17981.049   -35428.061    769.00757     33.48997   -159.28971    72.240509    62.562117    36.041801    331.99989   -311520.09 
     540    395.57192    162854.55    72.235031    72.235031    36.039067          120    18528.278    18678.441   -38794.426    1157.6818   -620.60676   -713.77199    72.235031    62.557372    36.039067   -529.23585   -311527.79 
     550    393.08693    162819.92    72.229911    72.229911    36.036513          120    18375.593    20066.892   -39989.556    1028.9911    -817.8805   -1045.5294    72.229911    62.552938    36.036513   -515.69058   -311544.95 
     560     387.8342    162787.49    72.225114    72.225115     36.03412          120    18005.435    20233.981   -38018.156    436.65303   -681.78615   -507.95119    72.225114    62.548784     36.03412    73.753449   -311555.73 
     570    383.90276    162757.41    72.220665    72.220665      36.0319          120    19929.748    20617.532    -35234.42   -93.534206    -642.4829    131.15795    72.220665    62.544931      36.0319    1770.9531   -311569.24 
     580    382.57808    162730.37    72.216665    72.216666    36.029904          120    21428.724    21487.929   -31801.656     99.52695   -532.67001    788.64048    72.216665    62.541467    36.029904    3704.9991   -311587.47 
     590    372.63585    162707.13    72.213228    72.213228    36.028189          120    21145.336    21939.669   -29467.576     153.2069   -503.56575    271.98613    72.213228     62.53849    36.028189    4539.1428   -311587.76 
     600    369.82304     162687.9    72.210382    72.210383     36.02677          120    21175.574    21913.026   -28856.215     451.5801   -447.65604    660.67291    72.210382    62.536026     36.02677    4744.1284   -311600.87 
     610    364.71567    162672.46    72.208098    72.208098     36.02563          120     21752.83    21669.733   -31379.579    665.53651   -311.11932    408.22535    72.208098    62.534048     36.02563    4014.3281   -311609.62 
     620    364.59825    162660.15    72.206277    72.206278    36.024722          120    21352.505    21320.032   -34552.229    60.343176    680.28319   -159.37713    72.206277    62.532471    36.024722    2706.7695   -311627.48 
     630     363.0902    162650.16    72.204799    72.204799    36.023984          120    21841.885    20977.655   -35889.937   -157.38899    468.22302   -180.62178    72.204799    62.531191    36.023984    2309.8676   -311642.86 
     640    359.07165    162642.06    72.203599      72.2036    36.023386          120    21928.642    21068.638   -36150.224     362.2305   -492.95919   -1086.4978    72.203599    62.530152    36.023386    2282.3522   -311653.31 
     650    350.37373    162635.79    72.202673    72.202673    36.022923          120    23292.744    22536.052   -34350.674    366.49299   -1064.6035   -1581.9172    72.202673    62.529349    36.022923    3826.0407    -311653.7 
     660    347.20029    162631.96    72.202105    72.202105     36.02264          120     23897.82    22723.075   -32283.873    843.84222   -1649.9543   -1791.0998    72.202105    62.528858     36.02264    4779.0073   -311664.22 
     670    343.81166    162630.96    72.201956    72.201957    36.022566          120     22917.58    23371.877   -30085.118    1416.5406   -1159.6603    -1320.972    72.201956    62.528729    36.022566    5401.4465   -311674.57 
     680    338.94818    162632.94     72.20225    72.202251    36.022713          120    22346.232     23428.81   -29646.915    977.50343   -1397.8078     -644.064     72.20225    62.528984    36.022713    5376.0425   -311680.79 
     690    336.36743    162637.71    72.202957    72.202957    36.023065          120     22209.71    22441.949   -30836.168    423.04773   -1381.9593   -1019.8028    72.202957    62.529595    36.023065    4605.1639   -311690.51 
     700    331.45049    162644.73    72.203995    72.203996    36.023583          120    22048.369    21233.183    -32014.67   -64.278403   -1504.1144    -347.7396    72.203995    62.530495    36.023583    3755.6275   -311695.54 
     710     329.4987    162653.39    72.205277    72.205278    36.024223          120    21657.041    20896.406   -33465.977   -112.42481   -1338.2933    338.40292    72.205277    62.531605    36.024223    3029.1568    -311705.9 
     720    328.76908    162663.25    72.206735    72.206736     36.02495          120    21565.394    21547.115   -34293.533    318.97296   -1063.0047    4.8340545    72.206735    62.532867     36.02495    2939.6584   -311718.27 
     730    326.33944    162674.17     72.20835    72.208351    36.025756          120    22023.537    21500.726   -34843.968    429.04113   -758.54517   -691.40083     72.20835    62.534266    36.025756    2893.4319   -311727.31 
     740    322.63141    162686.08    72.210113    72.210114    36.026636          120    21897.119    21524.784   -34239.244    422.19579   -1230.6126   -1042.6087    72.210113    62.535793    36.026636    3060.8862   -311733.46 
     750    315.67278    162699.04    72.212031    72.212032    36.027592          120     21840.61    21594.784   -32301.136    773.36235   -1610.6737   -867.59567    72.212031    62.537454    36.027592    3711.4196   -311733.55 
     760    315.00463    162713.34    72.214146    72.214147    36.028648          120     22432.39     21674.11   -31179.994    1194.8923   -2018.4521   -1021.6433    72.214146    62.539286    36.028648    4308.8354    -311744.6 
     770    311.52707    162729.21    72.216494    72.216494    36.029819          120    22235.961    21608.426    -30913.02    807.00872   -2055.3369   -1512.0812    72.216494    62.541319    36.029819    4310.4558   -311750.03 
     780    312.06919    162746.54    72.219057    72.219058    36.031098          120    21701.756    20682.185   -32257.017    847.04827   -1822.9939   -1099.0137    72.219057    62.543539    36.031098    3375.6414   -311763.28 
     790    306.53756    162764.82    72.221761    72.221761    36.032447          120    21062.682    19825.134   -33436.495    1234.4795   -1464.7359   -261.61027    72.221761     62.54588    36.032447    2483.7736   -311763.95 
     800    302.66345     162783.5    72.224524    72.224525    36.033826          120    20717.507    19656.362   -35069.917     998.3287   -1602.0602   -7.8724853    72.224524    62.548274    36.033826    1767.9839   -311767.67 
     810    300.55907    162802.24    72.227295    72.227296    36.035208          120    20609.988    20178.968   -35701.206      1301.35   -1571.3856   -371.81877    72.227295    62.550673    36.035208    1695.9168   -311774.41 
     820    301.50391    162820.95    72.230062    72.230063    36.036588          120    20597.167    20792.146   -35884.413    1325.3921   -1175.2066   -79.440035    72.230062    62.553069    36.036588    1834.9667   -311786.23 
     830    297.51612    162839.73     72.23284     72.23284    36.037974          120    21257.209    21085.627   -35444.126    1178.9131   -1365.7867   -436.22568     72.23284    62.555475    36.037974    2299.5701   -311788.67 
     840    295.00412    162858.83    72.235663    72.235663    36.039383          120    21104.198    21358.299   -34192.041    1495.1085   -1419.3197   -1000.8213    72.235663     62.55792    36.039383    2756.8188   -311793.38 
     850    291.72507    162878.47    72.238567    72.238568    36.040832          120    21747.071    20956.429   -33730.969    1242.4297   -2149.1743    -1144.547    72.238567    62.560435    36.040832    2990.8437    -311796.4 
     860    289.06048    162898.76    72.241566    72.241566    36.042328          120    21385.039    20489.932   -33343.376    1101.0564   -1822.7755   -1690.9517    72.241566    62.563032    36.042328     2843.865   -311799.78 
     870    287.45375    162919.62     72.24465    72.244651    36.043866          120    20731.936    20900.254   -33268.134    814.86752   -1701.7679   -1341.1316     72.24465    62.565703    36.043866    2788.0187   -311805.45 
     880    284.81321    162940.96    72.247805    72.247805     36.04544          120    19621.673    21139.108   -34580.635    1164.1889   -2060.1466   -900.04387    72.247805    62.568435     36.04544    2060.0486   -311808.13 
     890    286.40512    162962.39    72.250971    72.250971     36.04702          120    18751.319    20820.976   -36430.365    1413.4459   -1480.7814   -150.98931    72.250971    62.571177     36.04702    1047.3102   -311819.77 
     900    281.29232    162983.36     72.25407    72.254071    36.048566          120    18450.064    19740.009   -37479.351    1634.9901   -1087.5636   -315.86246     72.25407    62.573861    36.048566    236.90748   -311817.88 
     910    280.18768     163003.5    72.257047    72.257047    36.050051          120    18739.446    19094.751   -36573.885    1753.2552   -1613.6603   -3.1022666    72.257047    62.576439    36.050051    420.10399   -311823.08 
     920    278.10296    163022.91    72.259914    72.259914    36.051482          120    18738.618    19014.365   -36467.627    1259.8336   -1091.6976   -210.69439    72.259914    62.578921    36.051482    428.45202    -311826.4 
     930     278.3684     163041.6    72.262676    72.262676     36.05286          120    18144.479    18751.357   -36941.137     1581.327   -1173.5594   -987.41928    72.262676    62.581313     36.05286   -15.100118   -311833.28 
     940    276.22221    163059.43     72.26531     72.26531    36.054174          120    17460.704     18891.62   -36369.872    1779.9652    -1727.316   -1226.1046     72.26531    62.583595    36.054174   -5.8492742   -311835.33 
     950    274.63182    163076.43    72.267821    72.267822    36.055427          120    17568.473    19043.608    -35825.72    1609.2653   -1863.7348   -1599.4813    72.267821     62.58577    36.055427    262.12008   -311838.07 
     960    274.76288    163092.79    72.270238    72.270238    36.056633          120    18503.829    19756.051   -36167.719    1704.6871   -1839.9623   -787.51255    72.270238    62.587862    36.056633    697.38712   -311843.98 
     970    273.47919    163108.73    72.272592    72.272592    36.057807          120    18961.114    19418.197   -37364.343    1648.0151   -2090.0855   -402.05697    72.272592    62.589901    36.057807    338.32253   -311846.37 
     980    271.88888    163124.12    72.274865    72.274866    36.058941          120    18705.149     18350.37   -37769.483    1318.6725   -3409.0132   -462.17558    72.274865     62.59187    36.058941   -237.98793    -311848.3 
     990    271.68029    163138.69    72.277016    72.277017    36.060014          120    17836.998    18419.346   -38269.481    1022.4129   -3811.9889   -343.98561    72.277016    62.593733    36.060014   -671.04536   -311852.94 
    1000    270.39058    163152.26     72.27902    72.279021    36.061014          120    18276.778    18789.061   -38063.156    1116.4017   -2647.1167   -334.00314     72.27902    62.595468    36.061014   -332.43917   -311855.53 
Loop time of 371.495 on 1 procs for 1000 steps with 14848 atoms

Performance: 0.233 ns/day, 103.193 hours/ns, 2.692 timesteps/s
99.9% CPU use with 1 MPI tasks x no OpenMP threads

MPI task timing breakdown:
Section |  min time  |  avg time  |  max time  |%varavg| %total
---------------------------------------------------------------
Pair    | 296.89     | 296.89     | 296.89     |   0.0 | 79.92
Bond    | 0.0002234  | 0.0002234  | 0.0002234  |   0.0 |  0.00
Kspace  | 13.575     | 13.575     | 13.575     |   0.0 |  3.65
Neigh   | 53.04      | 53.04      | 53.04      |   0.0 | 14.28
Comm    | 0.47264    | 0.47264    | 0.47264    |   0.0 |  0.13
Output  | 0.011809   | 0.011809   | 0.011809   |   0.0 |  0.00
Modify  | 7.3864     | 7.3864     | 7.3864     |   0.0 |  1.99
Other   |            | 0.1141     |            |       |  0.03

Nlocal:    14848 ave 14848 max 14848 min
Histogram: 1 0 0 0 0 0 0 0 0 0
Nghost:    46837 ave 46837 max 46837 min
Histogram: 1 0 0 0 0 0 0 0 0 0
Neighs:    1.00884e+07 ave 1.00884e+07 max 1.00884e+07 min
Histogram: 1 0 0 0 0 0 0 0 0 0

Total # of neighbors = 10088414
Ave neighs/atom = 679.446
Ave special neighs/atom = 0
Neighbor list builds = 167
Dangerous builds = 0
PPPM initialization ...
  using 12-bit tables for long-range coulomb (../kspace.cpp:321)
  G vector (1/distance) = 0.202612
  grid = 36 50 24
  stencil order = 5
  estimated absolute RMS force accuracy = 0.000997187
  estimated relative force accuracy = 6.92508e-05
  using double precision FFTs
  3d grid and FFT values/proc = 65395 43200
Setting up Verlet run ...
  Unit style    : metal
  Current step  : 0
  Time step     : 0.001
Per MPI rank memory allocation (min/avg/max) = 151.5 | 151.5 | 151.5 Mbytes
Step Temp Volume Cella Cellb Cellc CellGamma Pxx Pyy Pzz Pxy Pxz Pyz Lx Ly Lz Press PotEng 
       0    270.39058    163152.26     72.27902    72.279021    36.061014          120    18288.783    18801.406   -38056.751    1117.0907   -2647.0563   -333.88899     72.27902    62.595468    36.061014   -322.18745   -311855.36 
      10    269.15491    163165.05     72.28091     72.28091    36.061957          120    18651.494    19137.736   -36852.168    1511.2363   -2576.1495   -328.50538     72.28091    62.597105    36.061957    312.35371   -311856.92 
      20    268.01954    163177.47    72.282743    72.282744    36.062872          120    19460.443    19949.465   -35921.618    1529.0829   -2674.1405   -855.04787    72.282743    62.598693    36.062872    1162.7634   -311858.78 
      30    265.58552    163189.95    72.284585    72.284586    36.063791          120    19252.473    20295.348   -35508.205    1499.5542   -2173.9689   -1520.9889    72.284585    62.600288    36.063791    1346.5389   -311857.56 
      40    265.51588    163202.54    72.286445    72.286446    36.064719          120    18802.648    18934.884   -36548.964    951.40599   -2091.3792   -1696.3092    72.286445    62.601899    36.064719    396.18965   -311860.54 
      50    265.79388    163214.83    72.288259     72.28826    36.065624          120    17895.702    18801.236   -37483.933    1191.2358   -2118.1072   -1716.5176    72.288259    62.603469    36.065624   -262.33183    -311864.2 
      60    267.36367    163226.43    72.289972    72.289973    36.066478          120    17708.092    17879.925   -38320.781    1568.2538   -2523.3378   -1442.4024    72.289972    62.604953    36.066478   -910.92131   -311869.32 
      70    265.84369    163237.05     72.29154     72.29154     36.06726          120    17680.849    17436.092   -38570.953    1498.5917   -2606.3878   -1211.2616     72.29154     62.60631     36.06726   -1151.3373   -311868.28 
      80    266.60645    163246.56    72.292943    72.292944    36.067961          120    17298.366    16942.821   -38099.772    1969.5374   -2433.8773   -743.91095    72.292943    62.607526    36.067961    -1286.195   -311871.66 
      90    262.87054    163254.98    72.294187    72.294187    36.068581          120    17918.696    17150.552   -37588.242     1980.815    -2110.782   -289.61862    72.294187    62.608603    36.068581   -839.66494   -311865.35 
     100    264.30177    163262.57    72.295307    72.295308     36.06914          120    18712.385     17170.82   -37032.597    1711.5581   -2166.6015   -476.18626    72.295307    62.609573     36.06914   -383.13056   -311869.15 
     110    263.36061    163269.59    72.296343    72.296344    36.069657          120    18415.492    17314.544   -37134.042    1051.6305   -1775.7022   -441.13091    72.296343    62.610471    36.069657   -468.00196   -311868.18 
     120    262.51458    163276.06    72.297298    72.297298    36.070133          120    18232.844    17550.002   -37474.331    873.91989   -1825.6923     -1155.58    72.297298    62.611297    36.070133   -563.82833   -311866.52 
     130    262.11095    163281.94    72.298166    72.298166    36.070566          120    18632.086    17238.082   -38217.265    623.56863   -1840.7573   -954.76003    72.298166    62.612049    36.070566   -782.36592   -311865.67 
     140    263.56123    163287.12     72.29893    72.298931    36.070947          120    17605.956    17314.752   -38886.743    757.26038   -1963.1565   -911.31578     72.29893    62.612711    36.070947   -1322.0116   -311867.24 
     150    267.35983    163291.37    72.299557    72.299558     36.07126          120    17424.761    17540.131   -39039.537    927.00698   -2558.6004   -1507.1649    72.299557    62.613254     36.07126   -1358.2151   -311873.28 
     160    266.67879    163294.71     72.30005    72.300051    36.071506          120    17816.252    17692.781   -37738.696    850.86829   -2770.9398   -1403.3475     72.30005    62.613681    36.071506   -743.22112   -311870.84 
     170    265.04486     163297.5    72.300462    72.300463    36.071712          120    17643.455    18575.824   -36524.106    1033.3995   -3531.2287    -1575.692    72.300462    62.614038    36.071712   -101.60913   -311865.32 
     180    268.18319    163300.07    72.300842    72.300843    36.071901          120     17357.16    17969.206    -36378.19    1266.4443   -3497.0235   -1953.5199    72.300842    62.614367    36.071901    -350.6082    -311869.8 
     190    269.13106    163302.35    72.301178    72.301178    36.072069          120    17093.498    17038.632   -36688.138    1004.2683   -3086.9156     -2348.93    72.301178    62.614657    36.072069   -852.00299   -311868.67 
     200    269.84505    163304.08    72.301433    72.301434    36.072196          120    17446.095    16790.623   -37459.148     1448.362   -2867.0377   -1758.5795    72.301433    62.614879    36.072196   -1074.1433   -311867.24 
     210    268.62715    163305.16    72.301593    72.301594    36.072276          120    17596.583    17349.987   -37559.917    2248.6827   -2819.3225   -1278.1911    72.301593    62.615017    36.072276   -871.11557   -311861.72 
     220    269.26984    163305.71    72.301674    72.301675    36.072317          120    17527.686    17602.653   -37055.653    2616.1551   -2501.6139   -1373.6867    72.301674    62.615087    36.072317   -641.77146   -311860.28 
     230     269.9133     163305.9    72.301701    72.301702     36.07233          120    18490.717    18068.887   -37329.923    2509.3799   -2560.1804   -1428.3649    72.301701    62.615111     36.07233   -256.77315   -311858.32 
     240    271.22532    163305.92    72.301705    72.301706    36.072332          120    18914.088    18068.863   -37569.248    1914.5092   -2718.7242   -1880.8281    72.301705    62.615114    36.072332   -195.43203   -311857.37 
     250    272.73592     163305.8    72.301686    72.301687    36.072323          120    18445.939    17243.004   -38509.072     1019.991   -2053.2229   -1468.6261    72.301686    62.615098    36.072323   -940.04283   -311856.62 
     260    272.11315    163305.17    72.301594    72.301595    36.072277          120     18006.41    16949.602   -38915.862    1299.6194   -2075.8782    -329.7405    72.301594    62.615018    36.072277   -1319.9499   -311851.98 
     270    275.44209    163303.87    72.301402    72.301402    36.072181          120    18266.668    17472.049   -38789.206    1340.6504   -2033.9701   -605.42808    72.301402    62.614851    36.072181   -1016.8293   -311855.06 
     280     275.5727    163302.09     72.30114     72.30114     36.07205          120    18053.651    18522.856   -36667.867    1191.1218   -1995.7278   -410.12723     72.30114    62.614624     36.07205   -30.453321    -311851.8 
     290    275.81944    163300.34    72.300881    72.300881    36.071921          120    17881.621    19578.096   -36253.327     1091.733   -2162.3635     -695.531    72.300881      62.6144    36.071921    402.13008   -311848.76 
     300    277.18918    163298.84    72.300659     72.30066     36.07181          120    18112.488    18967.858   -36653.366    1079.5846   -2400.7211    -529.6885    72.300659    62.614208     36.07181    142.32655   -311847.81 
     310    277.01751    163297.46    72.300457    72.300457    36.071709          120    17184.586    18910.105   -37502.969    974.37621   -2203.9347   -447.95223    72.300457    62.614033    36.071709   -469.42601   -311844.34 
     320    277.38339    163295.87    72.300222    72.300223    36.071592          120    16694.425    18505.575   -38600.396     1141.725   -2703.4681   -1016.4251    72.300222     62.61383    36.071592   -1133.4652   -311842.07 
     330    280.55709    163293.76     72.29991    72.299911    36.071437          120    17180.039    18415.124   -37931.187    1429.5565   -2392.1364   -1757.1368     72.29991     62.61356    36.071437   -778.67471   -311844.96 
     340    283.98342    163291.31    72.299548    72.299549    36.071256          120    18460.128    18797.872   -37683.316    1529.0694   -2434.1068   -1913.7176    72.299548    62.613246    36.071256   -141.77203   -311848.98 
     350    282.74173    163288.86    72.299186    72.299187    36.071075          120    19142.452    18883.682   -37021.233    1263.5864   -3385.2957   -1425.4812    72.299186    62.612933    36.071075    334.96704    -311844.9 
     360    282.10424    163286.65    72.298861    72.298862    36.070913          120    18043.996    18922.926   -36570.627    1187.7134   -3199.6522   -161.54116    72.298861    62.612651    36.070913    132.09808   -311841.29 
     370    279.69282    163284.62    72.298561    72.298561    36.070763          120    18100.761    18586.217   -36526.439    1450.9928    -2294.134    22.050867    72.298561    62.612391    36.070763    53.512933   -311834.16 
     380    281.42351    163282.73    72.298282    72.298283    36.070624          120    18220.163    19413.153   -35555.372    1331.7367   -2011.1192    704.45383    72.298282     62.61215    36.070624    692.64804   -311836.07 
     390    283.53488    163281.27    72.298067    72.298067    36.070517          120    18479.446    19404.226   -35400.294    1256.1558   -2621.7696    1009.3443    72.298067    62.611963    36.070517    827.79283   -311838.88 
     400    282.70526    163280.29    72.297922    72.297922    36.070444          120    18535.997    18352.123   -36052.996    1265.6135   -2885.4576    272.06255    72.297922    62.611837    36.070444    278.37458   -311835.59 
     410     282.3958    163279.48    72.297802    72.297802    36.070385          120    18170.144    17832.833   -37111.836    1879.3978   -2855.6752   -854.04903    72.297802    62.611734    36.070385   -369.61965   -311834.78 
     420    281.08287    163278.52    72.297661    72.297662    36.070315          120    18120.803    17767.563    -37071.55    1563.6181   -2527.1715   -1797.8152    72.297661    62.611612    36.070315   -394.39477   -311831.89 
     430    284.13202     163277.4    72.297496    72.297496    36.070232          120    18167.417    17751.605   -36611.952    948.30412   -2857.6783   -1372.4795    72.297496    62.611468    36.070232   -230.97648   -311838.09 
     440    282.96511    163276.18    72.297315    72.297316    36.070142          120    17704.048    18236.177   -36284.121    1265.0026   -3053.7647   -1003.2419    72.297315    62.611312    36.070142   -114.63207   -311836.01 
     450    282.18468    163274.95    72.297134    72.297134    36.070051          120    17779.244    18775.458   -36739.113      1239.53   -3037.4247   -255.34517    72.297134    62.611155    36.070051   -61.470305   -311834.96 
     460    283.06294    163273.71     72.29695    72.296951     36.06996          120    18106.351    18098.437   -37595.881     985.1833   -2802.1653    191.65462     72.29695    62.610996     36.06996   -463.69757   -311837.44 
     470    282.20919    163272.29    72.296742    72.296742    36.069856          120    18590.239    17889.608   -36968.124    1735.0519   -1963.3007    825.49814    72.296742    62.610815    36.069856   -162.75881   -311836.38 
     480     283.5359    163270.84    72.296527    72.296528    36.069749          120    19155.215    18106.244   -36292.106    2069.3992    -2020.234    585.66846    72.296527     62.61063    36.069749     323.1177   -311840.43 
     490    282.85199    163269.62    72.296348    72.296348    36.069659          120     20075.87    18211.297   -36310.871    1856.4046   -2822.9463   -88.407679    72.296348    62.610475    36.069659    658.76555    -311840.7 
     500    281.53944    163268.76    72.296221    72.296222    36.069596          120    19287.823    17713.112   -37031.456    1130.5888   -3224.1119   -273.44574    72.296221    62.610365    36.069596    -10.17369   -311840.28 
     510    283.43832    163267.95    72.296101    72.296102    36.069536          120    18160.542    18151.912   -37626.166     932.2673   -3095.0231   -381.13071    72.296101    62.610261    36.069536   -437.90388   -311846.49 
     520    282.05002    163266.91    72.295948    72.295948     36.06946          120    17266.994    18002.591    -37563.98    890.19626   -2714.8189   -1118.9597    72.295948    62.610128     36.06946   -764.79834   -311846.38 
     530    281.35955    163265.56    72.295747    72.295748     36.06936          120    18004.726    18620.277   -36072.745    1269.5854    -2249.668   -2018.2695    72.295747    62.609954     36.06936    184.08612   -311847.81 
     540    280.04751    163264.33    72.295567    72.295567    36.069269          120    18606.003    19226.155   -35414.871    1489.2406   -2283.9166   -1649.8821    72.295567    62.609798    36.069269    805.76224   -311848.09 
     550    278.62275    163263.58    72.295455    72.295456    36.069214          120    18756.422    19071.761   -35445.895    1598.8743   -2366.8547   -1389.6863    72.295455    62.609701    36.069214    794.09612    -311848.5 
     560    278.77545    163263.26    72.295409     72.29541    36.069191          120    18420.778    18991.447   -36442.662    1904.7671   -2766.1551   -1504.5086    72.295409    62.609662    36.069191    323.18781   -311851.76 
     570    276.75596    163263.15    72.295392    72.295393    36.069182          120    18222.546    19024.908   -37358.784    2051.3126   -2368.9523    -600.1173    72.295392    62.609647    36.069182   -37.110286   -311850.88 
     580    276.55035    163263.05    72.295377    72.295378    36.069175          120    18518.632    19096.362   -37130.794    1291.0117   -2568.6378   -107.47501    72.295377    62.609634    36.069175     161.4001    -311853.8 
     590    274.41807    163263.06    72.295378    72.295379    36.069176          120    19443.408    18688.378   -36373.253    1315.6178    -2927.793   -284.47635    72.295378    62.609635    36.069176    586.17755   -311852.77 
     600    275.31572    163263.38    72.295427    72.295427      36.0692          120    19604.967    19314.503   -36224.565    1804.8838   -3439.9078   -467.93901    72.295427    62.609677      36.0692    898.30153    -311857.7 
     610    275.74424    163264.16    72.295542    72.295542    36.069257          120    19571.113    19353.734   -36637.948    1544.4862   -3020.3454   -224.90209    72.295542    62.609776    36.069257    762.29961   -311862.21 
     620    272.71076    163265.37     72.29572     72.29572    36.069346          120    18864.709     19402.68   -35139.747    1930.0895   -2399.3247    -923.5755     72.29572    62.609931    36.069346    1042.5474   -311859.56 
     630    271.73557    163267.12    72.295978    72.295979    36.069475          120    18289.571    20046.135   -34505.985    1904.9111   -2963.1016   -992.64336    72.295978    62.610154    36.069475    1276.5739   -311860.86 
     640    271.38625    163269.46    72.296324    72.296325    36.069647          120     17298.56    19976.543   -35430.311    1643.9219   -2541.3468    -1060.504    72.296324    62.610454    36.069647    614.93068   -311863.02 
     650    273.37753    163272.08    72.296711    72.296711     36.06984          120      17691.5    18699.282   -36221.138    1267.1157   -2332.5444    -1458.591    72.296711    62.610789     36.06984    56.547927   -311869.82 
     660    271.56531    163274.67    72.297093    72.297093    36.070031          120    18043.129    18373.799   -37053.206    1181.9293   -2440.9599   -918.26098    72.297093     62.61112    36.070031   -212.09285   -311868.84 
     670    269.81864    163277.09    72.297449     72.29745    36.070209          120    17963.211    18221.035   -36587.239    1673.7105   -2829.8818   -975.68584    72.297449    62.611428    36.070209   -134.33076   -311867.53 
     680    270.08866    163279.32    72.297779     72.29778    36.070373          120    17696.054    18483.006   -37415.425    1954.2982    -2909.273   -183.51213    72.297779    62.611714    36.070373   -412.12148   -311870.75 
     690    267.75737    163281.29    72.298069     72.29807    36.070518          120    17752.427    18470.315   -37395.365    1863.9957   -2906.1865    106.80191    72.298069    62.611965    36.070518   -390.87425   -311867.67 
     700    269.32189    163282.94    72.298314    72.298314     36.07064          120    17577.569    18145.626   -37375.891    1685.5887    -2550.854   -165.09472    72.298314    62.612177     36.07064   -550.89885    -311872.6 
     710    270.02617    163284.23    72.298504    72.298505    36.070735          120    17340.257    17853.628   -36919.577    1532.3404   -2937.0346    130.92346    72.298504    62.612342    36.070735   -575.23043   -311875.34 
     720    267.71842    163285.18    72.298643    72.298644    36.070804          120    18059.715    17923.802   -37178.366     1307.213   -2237.3981   -407.90641    72.298643    62.612462    36.070804   -398.28344    -311872.3 
     730    267.90707    163285.88    72.298747    72.298747    36.070856          120    19112.109    17904.136   -36751.188    1485.9144   -2082.0554   -681.81858    72.298747    62.612552    36.070856    88.352473   -311873.63 
     740    269.13898    163286.57    72.298849    72.298849    36.070907          120    18805.514    18099.027   -37078.257    2125.4797   -2302.7128   -1124.1974    72.298849     62.61264    36.070907   -57.905335   -311876.56 
     750    267.52253    163287.19    72.298941    72.298941    36.070953          120    17989.292     17786.68   -37201.179    1701.8634   -2613.8095   -1831.4833    72.298941     62.61272    36.070953   -475.06885   -311873.85 
     760     271.0565    163287.57    72.298996    72.298997    36.070981          120    18464.223    18105.439   -37290.231    1059.9397   -2464.8967   -1702.9846    72.298996    62.612768    36.070981   -240.18989   -311881.41 
     770    267.44475     163287.8    72.299031    72.299032    36.070998          120    18346.152    18479.565   -36985.843    725.62091   -2690.9646   -1169.3698    72.299031    62.612798    36.070998   -53.375513   -311874.38 
     780    266.47882    163287.98    72.299057    72.299058    36.071011          120    17747.234    19013.923   -36885.559    1280.7204    -2903.889   -796.89149    72.299057    62.612821    36.071011   -41.467439   -311872.49 
     790    267.04089    163288.13     72.29908    72.299081    36.071022          120    17723.296    19675.971   -36796.558    1569.2693    -2937.735    -471.2185     72.29908    62.612841    36.071022    200.90285   -311872.68 
     800    266.65102    163288.39    72.299117    72.299118    36.071041          120     17445.87    20036.385   -36473.686      1604.27   -3214.6892    -132.2127    72.299117    62.612873    36.071041    336.18974   -311871.39 
     810    269.07684    163288.82    72.299181    72.299182    36.071073          120    17617.539    20295.223   -36516.585    1627.8839   -3303.6984    147.48103    72.299181    62.612928    36.071073    465.39255   -311875.28 
     820    270.53653    163289.49     72.29928    72.299281    36.071122          120    17266.396     20734.06   -36049.403    1450.4546    -3016.544   -883.46073     72.29928    62.613014    36.071122    650.35084   -311876.72 
     830    268.29168     163290.5     72.29943     72.29943    36.071197          120    17546.303    21031.997    -36183.09    948.13386   -2534.2482   -1203.9504     72.29943    62.613143    36.071197    798.40348      -311871 
     840    270.81219    163291.92    72.299639    72.299639    36.071301          120    17715.007    20198.852   -36232.304    1384.3109   -2578.6412    -1352.291    72.299639    62.613325    36.071301     560.5185   -311874.23 
     850    272.34596    163293.62    72.299889     72.29989    36.071426          120    17874.036    19445.849    -36163.87    1233.9271   -2222.0138    -1689.497    72.299889    62.613542    36.071426    385.33837   -311874.91 
     860    271.58221    163295.49    72.300166    72.300166    36.071564          120    17569.805    19656.654   -36391.465    1154.7693   -2647.1967   -1723.2202    72.300166    62.613781    36.071564    278.33142   -311870.62 
     870    270.33556    163297.45    72.300455    72.300456    36.071709          120    17244.948     19537.26   -36596.832    1992.4863     -3150.35   -1116.2958    72.300455    62.614032    36.071709    61.792044   -311865.89 
     880    268.58613     163299.4    72.300743    72.300743    36.071852          120    17155.363     19746.32   -37160.041    2000.4868   -2888.6424   -1163.4035    72.300743     62.61428    36.071852   -86.119277   -311860.76 
     890    271.70433    163301.23    72.301012    72.301013    36.071986          120    17222.142    19333.137   -37602.039    1896.7823   -2615.7918   -579.13953    72.301012    62.614514    36.071986   -348.92007   -311864.42 
     900    271.05965    163302.83    72.301249     72.30125    36.072105          120    17614.732    19036.132   -37122.399    2458.2801   -2569.0841   -286.96346    72.301249    62.614719    36.072105   -157.17842   -311860.11 
     910    273.89936    163304.29    72.301464    72.301465    36.072212          120    17917.283    18889.786   -36876.782    1942.5309    -3155.786   -1332.7549    72.301464    62.614906    36.072212   -23.237412   -311863.22 
     920    276.26567    163305.69    72.301671    72.301671    36.072315          120    18774.961    18888.957    -37200.07    1667.5204   -2590.2268   -1205.7327    72.301671    62.615084    36.072315    154.61596    -311865.4 
     930    274.46997    163307.12    72.301882    72.301883     36.07242          120    18284.264    19214.565   -37017.226    1633.9365   -2468.2416   -1164.9125    72.301882    62.615268     36.07242    160.53441   -311859.55 
     940    274.79695     163308.6      72.3021      72.3021    36.072529          120    17606.727    19296.093   -36786.609    1446.1035   -2737.7573   -1491.2076      72.3021    62.615456    36.072529    38.737075    -311857.1 
     950    274.95981    163310.06    72.302316    72.302316    36.072637          120    17938.055    19204.172   -36526.591    1673.8333   -2728.1425   -1377.3029    72.302316    62.615643    36.072637    205.21189   -311854.86 
     960    278.85123    163311.53    72.302533    72.302533    36.072745          120    18029.901     18555.56    -37924.82    1568.8214   -3148.6634   -1568.3711    72.302533    62.615831    36.072745   -446.45304    -311859.6 
     970    277.24858    163312.76    72.302714    72.302714    36.072835          120    17674.855    18707.677   -37769.449    1282.6684   -3060.7306    -1495.709    72.302714    62.615988    36.072835   -462.30535   -311853.91 
     980    280.02249    163313.67    72.302849    72.302849    36.072903          120    17127.612    18524.259   -38054.434    1504.8955   -2556.3956   -1184.7449    72.302849    62.616104    36.072903   -800.85417    -311856.9 
     990    279.59835     163314.1    72.302911    72.302912    36.072934          120    17242.914    17938.962   -38872.808    1465.4032    -2811.823   -252.17433    72.302911    62.616159    36.072934   -1230.3103   -311853.86 
    1000    281.24445    163313.86    72.302877    72.302877    36.072917          120    17269.388    18433.778   -38194.923    1215.2333   -3411.2925   -95.771374    72.302877    62.616129    36.072917   -830.58546   -311855.69 
    1010    282.31267    163313.17    72.302774    72.302775    36.072865          120    17063.252    18651.433   -37288.234    917.11752   -2855.2579   -208.59852    72.302774     62.61604    36.072865   -524.51608   -311856.03 
    1020    281.47968     163312.2    72.302632    72.302632    36.072794          120    17563.191    18629.697   -36901.607     679.0592   -2478.5502   -809.26665    72.302632    62.615917    36.072794   -236.23976   -311852.31 
    1030    279.69742    163311.13    72.302474    72.302475    36.072716          120    17624.705    19691.424   -37359.801    854.17646   -2351.5336   -918.96805    72.302474     62.61578    36.072716   -14.557436   -311847.59 
    1040    281.14521     163310.1    72.302321    72.302322    36.072639          120    17276.979    20024.633   -36158.605    1334.9523   -2046.1973   -1151.6559    72.302321    62.615648    36.072639    381.00211   -311849.25 
    1050    279.62043    163309.29    72.302203    72.302203     36.07258          120    17687.682    19886.245   -35742.213     1787.257   -1727.9794   -1588.3766    72.302203    62.615545     36.07258    610.57118   -311845.61 
    1060    280.97602    163308.85    72.302137    72.302138    36.072548          120    17911.456    19584.605   -35719.959    2134.3719   -1663.6401   -1806.2078    72.302137    62.615488    36.072548    592.03384   -311847.35 
    1070    283.14797    163308.72    72.302119    72.302119    36.072538          120    17649.038    19162.207   -36171.281    2278.8434   -2144.1033   -1374.8952    72.302119    62.615472    36.072538    213.32154   -311851.45 
    1080    282.93769    163308.72    72.302118    72.302119    36.072538          120    18020.889    18710.826   -37326.018     2028.412   -2413.7565   -437.25321    72.302118    62.615472    36.072538   -198.10109   -311850.78 
    1090    280.32765    163308.65    72.302107    72.302108    36.072533          120    18335.931    18677.257   -37422.338    1543.0609   -2837.1073    -669.1566    72.302107    62.615462    36.072533   -136.38334   -311845.89 
    1100    282.00701    163308.47    72.302081    72.302082     36.07252          120    17765.756    18408.192   -37208.999    1505.6643   -3115.1067   -711.29439    72.302081     62.61544     36.07252   -345.01695   -311850.21 
    1110     281.9873    163308.12    72.302029     72.30203    36.072494          120    17414.042    18133.292   -36707.178    1735.5408   -3105.2129   -34.515255    72.302029    62.615395    36.072494   -386.61479   -311850.88 
    1120    279.49363    163307.55    72.301945    72.301946    36.072452          120     17416.99    18016.315   -37148.636    1710.5973    -3683.077   -209.71097    72.301945    62.615322    36.072452   -571.77716   -311846.93 
    1130    280.34427    163306.69    72.301818    72.301818    36.072388          120    17684.511    17849.967   -37074.943    1776.4125    -2819.125   -19.900036    72.301818    62.615212    36.072388   -513.48861   -311849.42 
    1140    280.51027    163305.55     72.30165     72.30165    36.072304          120    17572.321    17690.831   -37225.568    1224.0134   -2464.5093   -221.24004     72.30165    62.615066    36.072304    -654.1388   -311850.97 
    1150    280.44396    163304.05    72.301429     72.30143    36.072194          120    17077.968    17760.409   -38132.902    971.06306   -1995.6238   -743.47954    72.301429    62.614875    36.072194   -1098.1751   -311852.95 
    1160    280.45709       163302    72.301126    72.301126    36.072043          120     17216.41     17743.86   -38333.912    1279.5429   -2262.7408   -580.02393    72.301126    62.614612    36.072043   -1124.5473   -311855.93 
    1170    280.83578    163299.38     72.30074     72.30074     36.07185          120    17406.463    17697.446   -37706.097    1642.4246   -2405.2994   -1191.4366     72.30074    62.614278     36.07185   -867.39588   -311858.35 
    1180    276.14971    163296.37    72.300295    72.300296    36.071629          120    18338.083    17954.063   -37365.824    1626.7225   -2605.2002   -435.36892    72.300295    62.613893    36.071629   -357.89246   -311851.54 
    1190    279.17335    163293.25    72.299835    72.299836    36.071399          120    19287.833    18354.854    -37219.31    1820.4353   -2527.7227   -236.26793    72.299835    62.613495    36.071399    141.12579    -311859.4 
    1200    277.89903    163290.27    72.299395    72.299395    36.071179          120    19257.202    18167.369   -37367.758    2040.9143   -2659.2644   -326.37079    72.299395    62.613113    36.071179     18.93806   -311859.32 
    1210    277.20824    163287.39     72.29897     72.29897    36.070967          120    18768.498    18115.464   -36941.911     2139.208   -2587.6468   -824.14828     72.29897    62.612745    36.070967   -19.316178   -311860.49 
    1220    276.33722    163284.58    72.298555    72.298555     36.07076          120    18421.374    19056.701   -37424.826    2529.8261   -2533.3269   -1440.3719    72.298555    62.612386     36.07076    17.749689   -311861.55 
    1230    274.96663    163281.85    72.298153    72.298154     36.07056          120    18575.713    19047.999   -36793.214    2571.6962   -2739.4513   -492.74829    72.298153    62.612038     36.07056    276.83268   -311861.27 
    1240    275.35551    163279.36    72.297785    72.297786    36.070376          120    19368.727    18874.487   -36281.751    1970.5372   -3013.3802   -991.99819    72.297785    62.611719    36.070376    653.82079   -311864.74 
    1250    272.87192    163277.33    72.297485    72.297485    36.070226          120    19826.602    19446.079   -35188.938    2210.6829   -3474.4789   -830.36972    72.297485    62.611459    36.070226    1361.2479   -311862.17 
    1260    274.05827    163276.09    72.297302    72.297302    36.070135          120    20395.844    19499.773   -35007.809    1812.2942   -3637.2785   -211.11571    72.297302    62.611301    36.070135    1629.2694   -311866.84 
    1270    273.16759    163275.75    72.297252    72.297252     36.07011          120     19992.65     19330.44   -35656.911    1931.2066   -3408.1008   -471.93926    72.297252    62.611257     36.07011    1222.0596    -311867.6 
    1280    272.49507    163276.14    72.297309    72.297309    36.070139          120    19507.789    19947.347   -35200.237    1536.0088   -2766.0921    -267.7004    72.297309    62.611307    36.070139       1418.3   -311868.41 
    1290    272.78802    163277.26    72.297475    72.297475    36.070221          120    18797.558    20021.898   -35760.736    1261.2947   -2606.8763   -843.54315    72.297475     62.61145    36.070221    1019.5735   -311871.43 
    1300    271.41916    163278.94    72.297722    72.297723    36.070345          120    18645.121     20079.77   -36128.391    1255.7188   -2106.0393   -919.54083    72.297722    62.611665    36.070345    865.50011   -311870.47 
    1310     272.9193    163281.05    72.298034    72.298035    36.070501          120    18364.716    19977.347   -35922.723    1449.8111    -2470.506   -345.64409    72.298034    62.611935    36.070501     806.4468   -311874.98 
    1320    270.03432    163283.58    72.298407    72.298408    36.070687          120    19300.883     19641.47   -36266.539    2001.7177   -2523.9027   -192.05694    72.298407    62.612258    36.070687    891.93793   -311871.45 
    1330    270.97179    163286.52    72.298841    72.298841    36.070903          120    19231.574    19259.498   -36708.543    1768.0494   -2252.9621   -153.34299    72.298841    62.612634    36.070903     594.1763   -311875.13 
    1340    270.46005    163289.69    72.299309     72.29931    36.071137          120    18016.027    19398.807   -37044.663    1216.9911   -2202.2045   -496.27837    72.299309    62.613039    36.071137     123.3901   -311876.17 
    1350    268.69074    163292.88    72.299781    72.299781    36.071372          120     18031.98    19513.185   -36575.661      1356.11   -2936.8741   -789.99928    72.299781    62.613447    36.071372    323.16789   -311874.34 
    1360    270.89187    163296.13     72.30026    72.300261    36.071611          120    17741.251    19288.464   -37349.484    1559.2972   -2906.7618   -565.01469     72.30026    62.613863    36.071611   -106.58965    -311879.5 
    1370    268.66945    163299.25    72.300721    72.300721    36.071841          120    17390.711    19171.252   -37411.335    1481.6122   -2708.9981   -532.31065    72.300721    62.614262    36.071841   -283.12424   -311875.99 
    1380    270.70719    163302.17    72.301151    72.301152    36.072056          120    18356.933    19254.365   -37102.591     1517.578   -3157.7339   -787.11138    72.301151    62.614634    36.072056    169.56876   -311880.85 
    1390    269.96679     163305.1    72.301584    72.301585    36.072272          120    19085.511    18944.431   -36505.183    1539.4625   -2348.9633   -901.51309    72.301584    62.615009    36.072272    508.25307   -311879.76 
    1400    269.88704     163308.2    72.302042    72.302042      36.0725          120    18808.864    18743.573   -37021.539    1251.7493   -2011.1814   -513.51837    72.302042    62.615406      36.0725    176.96585   -311879.57 
    1410    268.90908    163311.35    72.302506    72.302507    36.072732          120    18143.907    19090.222   -37098.514     1708.639   -1657.1667    -767.3584    72.302506    62.615808    36.072732    45.204951    -311877.6 
    1420    268.42322    163314.43    72.302961    72.302961    36.072959          120    17522.888    19084.932   -36827.657    2193.0276   -2326.6137   -1017.8392    72.302961    62.616201    36.072959   -73.279096   -311876.46 
    1430    267.79189    163317.41      72.3034    72.303401    36.073178          120    17832.815    19324.171   -36680.527    2218.1117   -2738.8715   -608.84511      72.3034    62.616582    36.073178    158.81972   -311875.05 
    1440    268.29416    163320.37    72.303837    72.303837    36.073395          120     18116.35     18954.71   -36694.896    1628.3435   -2999.9194   -517.62126    72.303837     62.61696    36.073395    125.38822   -311875.38 
    1450    270.16544    163323.36    72.304278    72.304278    36.073616          120    19469.017    19141.515   -36108.734    1068.2547   -2876.5908   -700.49398    72.304278    62.617342    36.073616    833.93264   -311878.13 
    1460    273.41324    163326.69    72.304771    72.304771    36.073861          120    19766.805    19537.164   -36065.092    1328.4225    -2604.393   -858.03553    72.304771    62.617769    36.073861    1079.6253   -311883.36 
    1470    270.35278    163330.56    72.305341    72.305341    36.074146          120    19804.021    19953.519   -35637.914    1570.9016   -3020.0578   -1215.7147    72.305341    62.618263    36.074146    1373.2084   -311876.35 
    1480    271.96435    163335.05    72.306004    72.306004    36.074477          120    19122.379    19578.209   -35696.868    1547.5472    -2984.907   -1358.2496    72.306004    62.618837    36.074477      1001.24   -311878.46 
    1490    269.32879    163339.97     72.30673     72.30673    36.074839          120     17784.96    19437.954   -36761.589     1321.117   -2678.5453     -1644.98     72.30673    62.619466    36.074839    153.77463   -311872.09 
    1500    271.10121    163344.86    72.307452    72.307452    36.075199          120    17351.862    19512.613   -37931.176    1454.3145   -2384.6147   -1107.9258    72.307452    62.620091    36.075199   -355.56683   -311873.81 
    1510    274.37669    163349.48    72.308132    72.308133    36.075539          120    18679.213    18758.815   -37230.524    1243.9216   -1723.8009   -968.17276    72.308132     62.62068    36.075539    69.168078   -311878.38 
    1520    272.75639    163354.02    72.308803    72.308803    36.075873          120    19622.593    18714.328   -35683.249    992.29494   -2218.7678   -779.67308    72.308803    62.621261    36.075873    884.55761   -311873.31 
    1530    278.44952    163358.92    72.309526    72.309527    36.076234          120    19789.978        18616   -34725.683    1579.9265   -2869.3989   -177.23315    72.309526    62.621887    36.076234    1226.7648   -311882.33 
    1540    272.62708    163364.36    72.310328    72.310329    36.076634          120    19103.701    18261.464   -34859.141    1403.9167   -2812.3589    478.64323    72.310328    62.622582    36.076634    835.34125   -311869.36 
    1550    274.40685    163370.11    72.311176    72.311177    36.077057          120    17764.371    18928.638   -36152.285     2014.126   -2661.2923    277.38552    72.311176    62.623316    36.077057    180.24114   -311870.77 
    1560    273.82845    163375.83     72.31202    72.312021    36.077478          120    17693.729    19300.829   -36943.691    2026.7189   -2326.6545    379.86157     72.31202    62.624047    36.077478    16.955982   -311867.89 
    1570    276.00197    163381.42    72.312845    72.312845     36.07789          120    17737.497    18527.232   -36995.353    1825.6157   -1545.8039    191.13511    72.312845    62.624761     36.07789   -243.54105   -311870.49 
    1580    274.58315    163386.67     72.31362    72.313621    36.078277          120    17121.514    17781.551   -38271.319    1785.4488    -2196.927    303.16823     72.31362    62.625433    36.078277   -1122.7513   -311866.26 
    1590    272.99444    163391.21     72.31429     72.31429    36.078611          120    17035.196    18202.674   -38812.929    1867.0527   -2394.4126    263.58475     72.31429    62.626013    36.078611   -1191.6863   -311861.45 
    1600    276.63017    163394.97    72.314844    72.314844    36.078887          120    17027.248    18136.681   -38985.295    1341.0474   -2570.3539   -488.65323    72.314844    62.626493    36.078887   -1273.7886   -311866.75 
    1610    276.86841     163397.9    72.315277    72.315278    36.079103          120    16349.998    18283.669   -39615.655    1563.6515   -3636.9109    -805.4711    72.315277    62.626868    36.079103   -1660.6627    -311864.7 
    1620     276.8743    163399.85    72.315565    72.315565    36.079247          120    16014.873    18123.906   -39332.182    1739.9109   -3582.5861   -814.56729    72.315565    62.627117    36.079247   -1731.1343   -311862.76 
    1630    279.18946    163400.82    72.315707    72.315707    36.079318          120    16523.471    18706.886   -38170.682    1515.3074   -3408.4065   -923.87195    72.315707     62.62724    36.079318   -980.10832   -311865.59 
    1640    278.51942    163401.21    72.315765    72.315765    36.079347          120    17673.012     18445.29   -37488.448    1137.1674   -3168.9093   -974.08767    72.315765     62.62729    36.079347   -456.71542   -311863.66 
    1650    277.64255    163401.29    72.315776    72.315777    36.079352          120    17631.659    17864.227   -38051.975    814.39734   -2308.3938   -259.87169    72.315776      62.6273    36.079352   -852.02933   -311861.02 
    1660    279.32497     163400.9     72.31572     72.31572    36.079324          120    18135.362    17937.819   -38275.166    1105.7151   -1698.4363    448.56015     72.31572    62.627251    36.079324   -733.99516   -311862.81 
    1670    279.40513    163400.12    72.315604    72.315604    36.079266          120    18762.001    17752.357   -38517.797    1090.1121   -1645.7914    412.88847    72.315604     62.62715    36.079266   -667.81304   -311861.67 
    1680    278.73756    163398.95    72.315432    72.315433    36.079181          120    17875.144    17796.398   -38249.363    1745.8254   -2043.2627     71.46862    72.315432    62.627002    36.079181   -859.27376   -311859.41 
    1690    279.73273    163397.36    72.315197    72.315197    36.079063          120     17822.22    17498.177   -37546.514    1782.2975   -3169.1713    -365.0626    72.315197    62.626798    36.079063   -742.03908   -311860.75 
    1700    279.27469    163395.37    72.314903    72.314903    36.078917          120    17842.045    18092.107   -38280.471     1469.612    -3195.182    -857.4096    72.314903    62.626544    36.078917   -782.10619   -311859.13 
    1710    279.97997       163393    72.314554    72.314555    36.078743          120    18009.383    18982.958   -37886.452    1773.4246    -3093.857    -1139.497    72.314554    62.626242    36.078743   -298.03697   -311860.08 
    1720    280.78551    163390.53     72.31419     72.31419    36.078561          120     18306.09    19124.895   -36862.537    1936.2702    -2891.419   -1073.8639     72.31419    62.625926    36.078561    189.48264   -311861.17 
    1730    280.16926     163388.2    72.313845    72.313846    36.078389          120    18348.311    18453.522   -36469.619    1666.4972   -3017.5906   -1063.9512    72.313845    62.625628    36.078389     110.7378   -311859.87 
    1740    280.77836       163386    72.313521    72.313522    36.078227          120    18217.854    18694.301   -37001.227    1486.7809   -3120.3218   -522.51348    72.313521    62.625347    36.078227   -29.690876   -311861.75 
    1750    278.15259    163383.81    72.313198    72.313199    36.078066          120    17829.838    18658.685   -39006.898    1475.3964   -2506.4348   -147.63863    72.313198    62.625067    36.078066   -839.45857   -311857.05 
    1760    280.71479    163381.24    72.312819     72.31282    36.077877          120    17510.988     18344.11   -38861.511    1361.2911   -1612.3625    44.694723    72.312819    62.624739    36.077877   -1002.1374   -311862.89 
    1770    279.77126    163378.19    72.312369     72.31237    36.077653          120    17248.368    18566.158   -37792.944    1406.9808   -2056.3071   -22.410557    72.312369    62.624349    36.077653   -659.47307    -311861.9 
    1780    280.77668    163374.86    72.311878    72.311878    36.077407          120    18071.375    19115.316    -37575.04    1773.1108   -2457.0962   -720.55683    72.311878    62.623924    36.077407    -129.4498   -311864.35 
    1790    278.74989    163371.53    72.311386    72.311386    36.077162          120    18893.183    18920.856   -37282.422    1495.1355   -2439.2463    -1360.636    72.311386    62.623498    36.077162    177.20541   -311861.52 
    1800    280.17066    163368.36    72.310919     72.31092    36.076929          120    18602.407    18554.747   -36613.197     1418.089   -2273.1569   -1633.1236    72.310919    62.623093    36.076929    181.31904   -311865.45 
    1810    279.36184    163365.36    72.310477    72.310477    36.076708          120    17367.132    19290.269   -36755.212    1526.0933   -2239.8665   -1815.5976    72.310477     62.62271    36.076708   -32.603669   -311865.41 
    1820    275.56481    163362.45    72.310046    72.310046    36.076493          120    18593.516    19107.599   -37141.075    1748.0752   -3195.1404   -1724.1096    72.310046    62.622337    36.076493    186.68014   -311860.32 
    1830    277.35171    163359.67    72.309636    72.309637    36.076289          120    18544.965    18754.417   -37591.927    2156.7664   -3135.7683   -1605.6942    72.309636    62.621983    36.076289    -97.51508   -311865.36 
    1840    275.71038     163356.9    72.309228    72.309229    36.076085          120    17741.394    18419.519   -37540.007    2458.3446   -2670.9112   -1132.5104    72.309228    62.621629    36.076085   -459.69828   -311863.95 
    1850    277.17808    163353.96    72.308794    72.308794    36.075869          120     17659.25    18607.526   -37325.431    2247.4003   -2269.3798   -440.27963    72.308794    62.621253    36.075869    -352.8853   -311868.28 
    1860    275.78839    163350.87    72.308338    72.308338    36.075641          120    18013.527    19000.646   -38134.482    1635.6023    -2822.217   -563.05502    72.308338    62.620858    36.075641   -373.43624   -311867.43 
    1870    276.56536    163347.69    72.307868    72.307869    36.075407          120    18176.302    19229.023   -37186.963    1414.7844   -2668.9967   -588.05193    72.307868    62.620452    36.075407    72.787509   -311871.15 
    1880    275.09025    163344.59    72.307411    72.307411    36.075179          120    18504.919    18605.762   -37098.075    1346.9028    -2557.537   -810.91306    72.307411    62.620055    36.075179    4.2021193   -311870.12 
    1890    276.13439    163341.55    72.306962    72.306963    36.074955          120     18698.52    18075.621   -37571.467    1129.2703   -2348.9069   -685.97604    72.306962    62.619667    36.074955    -265.7753   -311874.39 
    1900    273.34052    163338.44    72.306504    72.306505    36.074726          120     18313.48    18254.141   -38054.627    1473.4532   -2395.2512    -729.8923    72.306504     62.61927    36.074726   -495.66862   -311870.92 
    1910    271.76598    163335.15    72.306018    72.306018    36.074484          120    17835.829     18328.15   -37692.859    1443.4431   -2891.8148    -872.2935    72.306018    62.618849    36.074484   -509.62682   -311870.52 
    1920    273.98737    163331.66    72.305503    72.305504    36.074227          120    18160.357    18204.694   -36918.621    1329.7028   -3045.5229   -794.56548    72.305503    62.618403    36.074227   -184.52345   -311876.33 
    1930    271.50658    163328.14    72.304984    72.304984    36.073968          120    18994.955    18226.485   -37414.708     1202.468    -3241.588   -452.77347    72.304984    62.617953    36.073968   -64.422638   -311873.29 
    1940    273.48061    163324.67    72.304472    72.304473    36.073713          120    18930.376    18690.093   -36767.554    1347.2637   -3126.7513   -469.04477    72.304472    62.617511    36.073713    284.30527   -311878.46 
    1950    272.41172    163321.45    72.303996    72.303996    36.073475          120    19358.254    18253.662   -36531.958    991.20293   -3061.2823   -424.89974    72.303996    62.617098    36.073475    359.98584   -311877.88 
    1960    274.92351    163318.48    72.303558    72.303558    36.073256          120    19043.186     18535.16   -37184.529    884.85829   -2276.7663   -43.301545    72.303558    62.616718    36.073256    131.27227   -311884.11 
    1970    271.13654    163315.65    72.303141    72.303142    36.073049          120      18530.1    19080.204   -37780.403    1155.0975    -2058.501   -38.343573    72.303141    62.616358    36.073049   -56.699562   -311878.14 
    1980     271.9662    163312.88    72.302732    72.302733    36.072845          120    18582.008    18834.302   -37320.603    1228.1433   -2366.9086   -285.92784    72.302732    62.616004    36.072845     31.90245    -311880.6 
    1990    270.41242    163310.22     72.30234    72.302341    36.072649          120    18963.346    19067.917   -36296.421    1348.3032   -2011.4423   -762.11734     72.30234    62.615664    36.072649    578.28048   -311878.62 
    2000    274.98339    163307.92       72.302    72.302001    36.072479          120    19151.261    19122.047   -35968.808    1521.1126   -2285.8068   -829.19904       72.302     62.61537    36.072479    768.16641   -311888.83 
    2010    267.67207    163306.11    72.301733    72.301733    36.072346          120    19152.756    19724.511   -36456.111    2044.0769   -2648.0009   -1205.4119    72.301733    62.615138    36.072346    807.05225   -311875.64 
    2020    271.69652    163304.75    72.301533    72.301533    36.072246          120    18520.959    19216.196   -37179.546    1746.9934   -2948.8433   -1029.5566    72.301533    62.614965    36.072246     185.8699   -311884.07 
    2030     271.0601    163303.57    72.301358    72.301358    36.072159          120    18391.223    19268.079   -37461.005    1578.4003   -2946.2241   -1318.8067    72.301358    62.614813    36.072159    66.098878   -311882.95 
    2040    268.02966    163302.45    72.301192    72.301193    36.072076          120    19139.217    19212.426   -38141.784    960.57912   -2853.0483    -1602.203    72.301192     62.61467    36.072076    69.953266    -311877.5 
    2050    269.82539    163301.43    72.301042    72.301043    36.072001          120    19281.421    19723.367   -36897.626    709.22647   -2350.8283   -1299.8166    72.301042     62.61454    36.072001    702.38728   -311880.83 
    2060    272.00186     163300.8     72.30095     72.30095    36.071955          120    19895.917    19347.846   -36039.824     1023.399   -2552.1296   -913.24874     72.30095     62.61446    36.071955    1067.9796   -311885.07 
    2070    267.96835    163300.76    72.300943    72.300944    36.071952          120     19405.42    19007.751   -35827.778    1434.2866   -2505.9268   -636.37008    72.300943    62.614454    36.071952    861.79772   -311876.92 
    2080    269.71826     163301.2    72.301008    72.301008    36.071984          120    18671.838    19348.188   -36636.856    1641.9826   -2173.3154   -126.71253    72.301008     62.61451    36.071984    461.05672   -311880.42 
    2090     272.1403    163301.88    72.301109    72.301109    36.072035          120    17967.557    19312.648   -36506.839     1433.249    -2935.676    144.41441    72.301109    62.614598    36.072035    257.78864   -311884.51 
    2100    274.22655    163302.71     72.30123    72.301231    36.072095          120    17910.062    18863.881   -36112.608    1288.1736   -2442.6997    36.382015     72.30123    62.614703    36.072095    220.44532   -311887.37 
    2110    270.58544    163303.63    72.301367    72.301367    36.072163          120    18486.022    18478.336   -37001.048    1304.5289   -2391.4835    207.71341    72.301367    62.614821    36.072163   -12.229922    -311879.5 
    2120    271.81666    163304.53    72.301499      72.3015    36.072229          120     18970.98    18160.344    -37594.27    1374.1824   -2200.6196    39.833061    72.301499    62.614936    36.072229   -154.31522   -311880.93 
    2130    270.96237    163305.34    72.301619     72.30162    36.072289          120    19117.354    18656.283   -37320.214    1163.4542   -1675.6735   -596.78728    72.301619     62.61504    36.072289    151.14133   -311878.11 
    2140    272.28393    163306.22    72.301748    72.301749    36.072354          120    18457.807    19216.462   -36208.181    941.44381   -1528.3684   -689.27904    72.301748    62.615151    36.072354    488.69609   -311879.81 
    2150    273.23936    163307.34    72.301915    72.301915    36.072437          120    18501.525    19382.498   -36338.195    422.12099   -2274.0291   -237.20059    72.301915    62.615295    36.072437    515.27597   -311880.01 
    2160    274.22369    163308.72    72.302117    72.302118    36.072538          120    18408.627    18840.682   -36395.468    491.02658   -2796.5264    31.078601    72.302117    62.615471    36.072538    284.61389   -311880.04 
    2170    273.93689    163310.25    72.302343    72.302344     36.07265          120    19127.454    18759.045   -35980.583    979.43218    -2021.909   -641.82595    72.302343    62.615667     36.07265    635.30525    -311878.4 
    2180    272.44761    163312.11    72.302618    72.302619    36.072788          120    19278.902    19528.111   -35312.543    1376.6599   -1753.0571   -863.34686    72.302618    62.615905    36.072788    1164.8232   -311874.23 
    2190     273.8079    163314.56    72.302979     72.30298    36.072968          120    19440.207    19480.412   -35518.135    1569.6757   -2100.6285   -1102.0724    72.302979    62.616218    36.072968    1134.1609    -311875.2 
    2200    274.47429    163317.55    72.303421    72.303422    36.073188          120    18961.767    19227.234   -36929.629    1896.8703   -2526.7078   -1188.6268    72.303421      62.6166    36.073188     419.7907   -311874.58 
    2210    275.46961    163320.72    72.303888    72.303889    36.073421          120    18141.318    19094.071   -37524.778      1650.19   -2711.7831   -609.24736    72.303888    62.617005    36.073421   -96.462892   -311875.12 
    2220    277.18605    163323.74    72.304334    72.304335    36.073644          120    17470.467    18489.417    -37992.64    1701.3734   -3412.1999   -766.62079    72.304334    62.617391    36.073644   -677.58555   -311876.39 
    2230    278.28947    163326.34    72.304718    72.304718    36.073835          120    17433.148    18436.284   -38065.824    1452.8971   -2559.7732   -883.51178    72.304718    62.617723    36.073835   -732.13065   -311877.66 
    2240    274.19997     163328.5    72.305037    72.305038    36.073994          120    18362.574    19248.078   -38072.177    1787.6105   -2031.3297   -602.26145    72.305037    62.617999    36.073994   -153.84183   -311868.03 
    2250    276.21102    163330.53    72.305336    72.305336    36.074143          120    18488.647    19746.442   -36749.255    1416.3177   -2549.4982   -340.00891    72.305336    62.618258    36.074143    495.27792   -311870.76 
    2260    277.26147     163332.8    72.305671    72.305672    36.074311          120    18749.318    19879.623   -35632.192    1109.0687   -2335.6518   -615.08398    72.305671    62.618549    36.074311    998.91657   -311871.16 
[...]
    9200    274.71527    163477.69    72.327046    72.327047    36.084975          120    17396.409    19331.964   -39043.487    408.85399   -2702.3424   -1401.0855    72.327046     62.63706    36.084975   -771.70482   -311888.74 
    9210    273.32728    163474.41    72.326562    72.326563    36.084734          120    17592.061    19164.199   -38774.938    198.07703   -3020.1032   -1328.1048    72.326562    62.636641    36.084734   -672.89268   -311884.99 
    9220    275.63985    163470.79    72.326028    72.326029    36.084467          120     18495.64    18813.266   -39026.213    901.69364   -2579.2154    -1336.137    72.326028    62.636178    36.084467   -572.43536   -311888.92 
    9230    272.04444     163466.9    72.325455    72.325455    36.084181          120    18786.971     18571.17   -37724.247    964.07319   -2735.6143   -1164.0206    72.325455    62.635682    36.084181   -122.03503   -311880.99 
    9240    275.91715    163462.95    72.324871    72.324872     36.08389          120    18327.576    18960.788   -37657.414     391.3011   -2408.9734   -1021.6688    72.324871    62.635176     36.08389   -123.01674   -311888.14 
    9250     274.7246    163458.99    72.324288    72.324288    36.083599          120    18631.394    19214.298   -37366.305    231.36676    -2129.308   -1646.1548    72.324288    62.634671    36.083599    159.79577   -311885.32 
    9260    277.26079    163455.15    72.323721    72.323722    36.083316          120    17620.015    19834.126   -37028.269    534.33945   -2841.9565   -416.18922    72.323721    62.634181    36.083316    141.95723   -311889.18 
    9270    275.35923    163451.44    72.323174    72.323175    36.083043          120    17509.649    20202.122   -36829.307    1088.7737   -2394.0082   -242.02471    72.323174    62.633707    36.083043    294.15472   -311884.29 
    9280    277.94959    163447.89    72.322651    72.322652    36.082782          120    17557.323    19652.091   -37412.497     1198.822   -3259.0231   -432.39887    72.322651    62.633254    36.082782   -67.694389   -311888.47 
    9290    274.81675    163444.37    72.322132    72.322133    36.082523          120    18150.036    19185.156   -37488.967    995.92035   -3311.8429   -331.25272    72.322132    62.632804    36.082523   -51.258709   -311881.53 
    9300    276.15464    163440.88    72.321616    72.321617    36.082266          120     17707.03    19557.565   -37031.107     1288.328   -2896.0815    -770.0133    72.321616    62.632358    36.082266    77.829301   -311883.47 
    9310    277.70998    163437.47    72.321113    72.321114    36.082015          120    18007.411    19293.729   -36981.601    2037.8451   -2879.4958   -1429.8535    72.321113    62.631922    36.082015    106.51298   -311885.66 
    9320     275.6611    163434.16    72.320625    72.320626    36.081772          120    17910.391    19522.136   -36502.638    1890.6554   -3373.4765   -1798.3529    72.320625    62.631499    36.081772    309.96304   -311881.21 
    9330    278.40079    163431.04    72.320165    72.320166    36.081542          120    17675.722    19470.695   -36751.551    1546.9083   -3171.2496   -1767.2354    72.320165    62.631101    36.081542    131.62212    -311886.1 
    9340    279.13003    163428.08    72.319729    72.319729    36.081324          120    17915.496    20299.279   -36511.681    814.61395   -2661.3934   -2160.2966    72.319729    62.630723    36.081324    567.69788   -311887.67 
    9350    276.89297    163425.45     72.31934    72.319341     36.08113          120    18846.007     19469.44   -36626.117    34.206043   -2853.8542   -2068.1194     72.31934    62.630386     36.08113    563.10955   -311882.82 
    9360     276.4509    163423.12    72.318997    72.318998    36.080959          120    18903.879    18604.532   -37890.322   -288.38655   -2461.6114   -1057.4293    72.318997    62.630089    36.080959   -127.30377   -311881.84 
    9370    277.98315    163420.78    72.318652    72.318653    36.080787          120    18808.148    18675.841   -38707.964    242.40132   -1763.1802   -763.11548    72.318652     62.62979    36.080787    -407.9917   -311884.75 
    9380    276.40797     163418.3    72.318286    72.318286    36.080604          120    18845.079    19197.166   -37292.216    873.20913   -2033.8764   -1567.7424    72.318286    62.629473    36.080604    250.00959   -311881.34 
    9390    279.34961    163415.94    72.317938    72.317939    36.080431          120    18516.591    19367.023   -36523.095    1004.8596   -2557.6616   -1548.9578    72.317938    62.629172    36.080431    453.50636   -311887.05 
    9400    276.62095    163413.91    72.317639    72.317639    36.080281          120    18770.885    20626.861   -35857.693    971.49321   -3015.6724    -1616.389    72.317639    62.628913    36.080281    1180.0177   -311882.15 
    9410    277.28774    163412.51    72.317431    72.317432    36.080178          120    19096.245    20156.922   -36309.205    1103.0662   -3332.5425   -1652.8521    72.317431    62.628733    36.080178    981.32056      -311884 
    9420    277.55765    163411.68    72.317309    72.317309    36.080117          120     19101.35    19497.939   -36350.219    628.05667    -2766.776   -2296.6852    72.317309    62.628627    36.080117    749.69039   -311884.77 
    9430    277.35684    163411.28     72.31725    72.317251    36.080088          120    19224.688    18625.501    -36071.46    47.504533   -3055.6314   -1935.0374     72.31725    62.628576    36.080088    592.90984   -311884.57 
    9440    278.39659    163411.23    72.317243    72.317244    36.080084          120     18894.85     18988.58   -36068.343      612.644   -2779.2695   -837.83732    72.317243     62.62857    36.080084    605.02907   -311887.02 
    9450     276.1804    163411.51    72.317285    72.317285    36.080105          120    18483.392    19641.375   -37023.774    1249.9969   -2434.6811    -729.0844    72.317285    62.628606    36.080105    366.99744    -311883.7 
    9460    276.72988    163412.01    72.317358    72.317359    36.080142          120    18799.012    19328.436   -36616.135    1185.5056   -2047.8221    -1464.661    72.317358     62.62867    36.080142    503.77139   -311885.49 
    9470    278.16762     163412.8    72.317474    72.317475      36.0802          120    18678.158    19851.772   -35816.312    1119.5538   -1938.9414   -1794.0925    72.317474    62.628771      36.0802    904.53928   -311889.01 
    9480    277.66677    163414.08    72.317663    72.317664    36.080294          120    18852.618    20134.611   -35901.868    649.02041   -2109.0028   -1486.5025    72.317663    62.628934    36.080294    1028.4535   -311888.82 
    9490    274.38567    163415.92    72.317935    72.317936    36.080429          120    19316.118    20438.431   -37021.188     300.7698   -2514.9744   -1198.1178    72.317935     62.62917    36.080429    911.12054   -311883.21 
    9500    274.15438    163418.26     72.31828    72.318281    36.080601          120    18940.885    20136.166   -37019.502    169.99192    -2153.557   -1148.8008     72.31828    62.629468    36.080601    685.84941   -311883.82 
    9510    276.41536    163420.94    72.318676    72.318676    36.080799          120    18255.409     19626.03   -36622.727    158.05489   -1697.7579   -595.75917    72.318676    62.629811    36.080799    419.57046   -311888.88 
    9520    275.68733    163423.86    72.319106    72.319107    36.081014          120    18681.216    19595.359   -36413.203    286.69052    -2314.263   -406.09749    72.319106    62.630184    36.081014    621.12409   -311888.38 
    9530    274.52514     163427.1    72.319584    72.319585    36.081252          120    19287.813    19966.412   -36559.619    568.30279    -3006.993   -1064.0077    72.319584    62.630598    36.081252    898.20195   -311887.36 
    9540    274.49705    163430.79    72.320128    72.320129    36.081524          120    18885.575    20032.824   -36315.063    971.44454   -3345.6613    -886.3403    72.320128    62.631069    36.081524    867.77844   -311888.43 
    9550    274.86807    163434.95    72.320742    72.320742     36.08183          120    18796.051    19805.648   -35526.453    1423.3315   -3049.9954   -1720.0556    72.320742      62.6316     36.08183    1025.0822   -311890.27 
    9560    275.15352    163439.63    72.321432    72.321433    36.082174          120    19085.862    19811.213   -36403.256    1567.1766   -3194.5357   -2120.4941    72.321432    62.632198    36.082174      831.273    -311892.1 
    9570    275.12798    163444.72    72.322183    72.322184    36.082549          120    18466.759    19695.443   -36655.133    1237.0877   -2848.8994   -1487.9925    72.322183    62.632848    36.082549    502.35608   -311892.48 
    9580    274.95552    163450.05    72.322969    72.322969    36.082941          120    18459.114    19645.719   -37301.463    1266.8633   -2680.9273   -1243.3571    72.322969    62.633529    36.082941     267.7901   -311893.34 
    9590    272.18368    163455.45    72.323765    72.323766    36.083338          120    17734.296    19365.877   -38066.033    450.66271   -2814.5697   -1543.8657    72.323765    62.634219    36.083338   -321.95343   -311888.87 
    9600    272.21078    163460.64    72.324531    72.324531     36.08372          120     17765.38    19492.184   -37912.897    371.91684   -3004.6186    -1607.528    72.324531    62.634882     36.08372   -218.44433   -311889.66 
    9610    273.92222    163465.68    72.325275    72.325275    36.084091          120    18650.529    19346.094   -36799.012    738.91227   -3287.2009   -695.73205    72.325275    62.635526    36.084091    399.20384   -311893.53 
    9620    272.76341    163470.84    72.326035    72.326036    36.084471          120     17900.52    19505.067   -36936.875    1131.1795   -2689.6392   -1127.7417    72.326035    62.636184    36.084471    156.23733   -311892.41 
    9630    272.76906    163476.05    72.326804    72.326805    36.084854          120    17983.233    20119.171   -36988.507    1249.0568   -2760.8182   -1932.1393    72.326804    62.636851    36.084854    371.29915   -311892.86 
    9640    274.01297    163481.41    72.327594    72.327595    36.085248          120    18107.791    19967.321   -37378.103    1067.8757   -2489.8593   -1572.9133    72.327594    62.637535    36.085248    232.33599   -311895.62 
    9650    272.13741    163486.83    72.328393    72.328394    36.085647          120    17691.062    19499.225   -36980.756    591.26662    -2760.278   -1111.3403    72.328393    62.638227    36.085647    69.843208   -311892.49 
    9660    272.57434    163492.27    72.329196    72.329197    36.086048          120    18299.545    19452.889   -36445.629   -114.86524   -2972.7208   -1398.0165    72.329196    62.638922    36.086048    435.60168   -311893.93 
    9670    270.16324    163497.87    72.330022    72.330022    36.086459          120     18643.25    19435.142   -37807.092    449.87158   -2654.3269   -1601.4759    72.330022    62.639637    36.086459    90.433441   -311889.68 
    9680    273.07608    163503.43    72.330841    72.330842    36.086868          120      18257.5    18058.596   -37892.706    1026.5491   -2018.9776    -1495.355    72.330841    62.640347    36.086868   -525.53678   -311895.25 
    9690    272.60766    163508.63    72.331609    72.331609    36.087251          120    17539.081    17838.171   -38309.559    2036.2224   -1256.4969   -1083.3801    72.331609    62.641011    36.087251   -977.43558   -311894.58 
    9700    272.54301    163513.29    72.332295    72.332296    36.087594          120    17720.228    18198.398   -37406.672    1597.8553   -1694.4411   -379.45958    72.332295    62.641606    36.087594   -496.01525   -311893.94 
    9710    272.86832    163517.62    72.332934    72.332934    36.087913          120    18282.506    18775.824   -37117.284    742.51211   -1977.5021   -689.81928    72.332934    62.642159    36.087913   -19.651332   -311894.08 
    9720    271.13517    163521.83    72.333555    72.333556    36.088223          120    18206.453    18242.142   -38061.706    263.78087   -2274.1466   -884.62045    72.333555    62.642697    36.088223    -537.7032   -311890.59 
    9730    271.79114    163525.71    72.334126    72.334127    36.088507          120    17390.995     18426.63   -38069.543    398.57478     -2245.87   -620.42108    72.334126    62.643192    36.088507   -750.63935   -311891.51 
    9740    270.76042    163529.13    72.334631    72.334632    36.088759          120     17267.92     18544.13   -37539.527    432.03279   -2708.4835   -712.82132    72.334631    62.643629    36.088759   -575.82579   -311888.66 
    9750    276.41566    163532.17    72.335079     72.33508    36.088983          120    17250.335    18297.317   -37279.469    768.88436   -2462.4162   -1099.8937    72.335079    62.644017    36.088983   -577.27238   -311898.77 
    9760    272.88773    163534.85    72.335474    72.335475     36.08918          120    16783.107    18547.388   -37149.447     1489.622   -1981.7906   -1415.5815    72.335474    62.644359     36.08918   -606.31726   -311891.48 
    9770    274.19963    163537.13    72.335811    72.335811    36.089348          120    16566.474    18163.686   -37334.443    1389.6928   -2010.2159   -1381.9685    72.335811     62.64465    36.089348   -868.09417   -311893.43 
    9780     272.5094     163538.9    72.336071    72.336071    36.089478          120    17037.597    17781.033   -38015.995    1094.3473    -1690.055   -1164.4323    72.336071    62.644876    36.089478   -1065.7883   -311889.62 
    9790    271.54664    163540.02    72.336237    72.336237     36.08956          120    16542.429    17520.973   -38346.867    883.23179   -1725.4393   -1027.3681    72.336237    62.645019     36.08956   -1427.8218   -311887.16 
    9800    274.42353    163540.36    72.336286    72.336287    36.089585          120    16394.577    18447.918   -38347.971    649.06164   -2293.2411   -610.82744    72.336286    62.645062    36.089585    -1168.492   -311891.32 
    9810    274.34291    163540.03    72.336239    72.336239    36.089561          120    16971.922    18743.671    -38253.54    1228.4158   -2307.0789   -696.73667    72.336239    62.645021    36.089561   -845.98236   -311890.21 
    9820    275.25724    163539.23    72.336119     72.33612    36.089502          120    17081.346      19264.6   -38291.171    1050.6363   -2217.4243   -446.36243    72.336119    62.644918    36.089502    -648.4083   -311890.94 
    9830    274.73022    163538.07    72.335949    72.335949    36.089417          120    17509.015      19003.3    -37468.45     837.6113   -2417.4633   -656.56262    72.335949     62.64477    36.089417   -318.71144   -311889.12 
    9840    273.75162    163536.73    72.335752    72.335752    36.089318          120    17817.524    18700.883   -37277.188    1059.7676   -2784.8584   -1177.5964    72.335752    62.644599    36.089318   -252.92697   -311886.42 
    9850    273.70207    163535.28    72.335538    72.335538    36.089212          120    17879.571    19260.941    -37725.22    1550.5069   -2646.7344   -1476.4668    72.335538    62.644414    36.089212   -194.90286   -311885.22 
    9860    273.80007    163533.73     72.33531     72.33531    36.089098          120    18069.683    19233.879   -37662.601    1341.5875   -2831.8812   -1626.2892     72.33531    62.644216    36.089098   -119.67953   -311884.51 
    9870    276.43768    163532.12    72.335071    72.335072    36.088979          120    18182.917    19046.336    -37349.14    844.06589   -2964.5275   -1488.1977    72.335071     62.64401    36.088979   -39.962487   -311888.45 
    9880    276.67686    163530.52    72.334836    72.334836    36.088861          120    18802.685    19522.086   -37040.425    527.61134   -3006.5333   -1153.2879    72.334836    62.643806    36.088861    428.11529   -311887.33 
    9890    276.37344    163529.17    72.334637    72.334637    36.088762          120    19048.673     20377.61   -37449.236    491.20628   -2338.7898   -1315.6619    72.334637    62.643633    36.088762    659.01552   -311885.92 
    9900    278.53467    163528.21    72.334495    72.334495    36.088691          120    19338.805    20170.999   -37236.137    547.65775   -2750.2586   -1821.9997    72.334495    62.643511    36.088691    757.88921   -311888.69 
    9910    278.39192    163527.65    72.334413    72.334414    36.088651          120    18286.752    20223.181    -37457.69      253.377   -3198.8167   -1829.7357    72.334413     62.64344    36.088651      350.748   -311888.18 
    9920    274.84736    163527.32    72.334365    72.334365    36.088626          120    17975.865    19682.228   -37326.715    123.84068   -3082.2915   -1453.6189    72.334365    62.643398    36.088626    110.45925   -311880.41 
    9930    278.09481    163527.04    72.334322    72.334323    36.088605          120    17538.776    19590.654   -38400.736    305.16783   -2707.7342   -848.17597    72.334322    62.643361    36.088605   -423.76856    -311886.5 
    9940     277.6726    163526.52    72.334246    72.334247    36.088567          120     17190.53    19122.895    -38868.69    860.90209   -2230.7391   -1465.5462    72.334246    62.643295    36.088567   -851.75461    -311885.2 
    9950    277.59785    163525.55    72.334102    72.334103    36.088496          120    17405.413     18520.36   -38452.417    977.01671   -2088.9417   -649.65611    72.334102    62.643171    36.088496   -842.21454   -311884.65 
    9960    277.12391     163524.1     72.33389     72.33389    36.088389          120    17501.711    18147.907   -38186.337       829.63   -1569.7611    -931.0805     72.33389    62.642987    36.088389     -845.573   -311883.06 
    9970     276.2441    163522.19    72.333607    72.333608    36.088248          120    17518.653    18313.827   -38881.376    471.88654    -1988.226   -830.94538    72.333607    62.642742    36.088248   -1016.2988    -311881.2 
    9980    275.85802    163519.71    72.333243    72.333243    36.088067          120    17534.028    18534.693   -39307.642    492.95162     -2320.87   -1223.4078    72.333243    62.642426    36.088067   -1079.6406   -311879.95 
    9990    279.27529    163516.68    72.332795    72.332796    36.087843          120    17943.385    18205.503   -37747.303    556.79556   -2520.5538   -1552.9162    72.332795    62.642039    36.087843    -532.8048   -311886.45 
   10000     277.1984    163513.36    72.332306    72.332306    36.087599          120    18404.527    18810.121   -37153.118    632.98908   -2526.3699   -1889.9759    72.332306    62.641615    36.087599    20.509825   -311882.03 
Loop time of 3504.17 on 1 procs for 10000 steps with 14848 atoms

Performance: 0.247 ns/day, 97.338 hours/ns, 2.854 timesteps/s
99.9% CPU use with 1 MPI tasks x no OpenMP threads

MPI task timing breakdown:
Section |  min time  |  avg time  |  max time  |%varavg| %total
---------------------------------------------------------------
Pair    | 2902.6     | 2902.6     | 2902.6     |   0.0 | 82.83
Bond    | 0.0023549  | 0.0023549  | 0.0023549  |   0.0 |  0.00
Kspace  | 132.9      | 132.9      | 132.9      |   0.0 |  3.79
Neigh   | 390.41     | 390.41     | 390.41     |   0.0 | 11.14
Comm    | 4.3277     | 4.3277     | 4.3277     |   0.0 |  0.12
Output  | 0.11968    | 0.11968    | 0.11968    |   0.0 |  0.00
Modify  | 72.748     | 72.748     | 72.748     |   0.0 |  2.08
Other   |            | 1.1        |            |       |  0.03

Nlocal:    14848 ave 14848 max 14848 min
Histogram: 1 0 0 0 0 0 0 0 0 0
Nghost:    46759 ave 46759 max 46759 min
Histogram: 1 0 0 0 0 0 0 0 0 0
Neighs:    1.00649e+07 ave 1.00649e+07 max 1.00649e+07 min
Histogram: 1 0 0 0 0 0 0 0 0 0

Total # of neighbors = 10064901
Ave neighs/atom = 677.862
Ave special neighs/atom = 0
Neighbor list builds = 1248
Dangerous builds = 0
 
All done!
Total wall time: 1:04:37
