LAMMPS (16 Mar 2018)
Reading data file ...
  triclinic box = (0 0 0) to (9.208 7.97436 18.376) with tilt (-4.604 0 0)
  1 by 1 by 1 MPI processor grid
  reading atoms ...
  116 atoms
Finding 1-2 1-3 1-4 neighbors ...
  special bond factors lj:   0          0          0         
  special bond factors coul: 0          0          0         
  0 = max # of 1-2 neighbors
  0 = max # of 1-3 neighbors
  0 = max # of 1-4 neighbors
  1 = max # of special neighbors
Replicating atoms ...
  triclinic box = (0 0 0) to (73.664 63.7949 36.752) with tilt (-36.832 0 0)
  1 by 1 by 1 MPI processor grid
  14848 atoms
Finding 1-2 1-3 1-4 neighbors ...
  special bond factors lj:   0          0          0         
  special bond factors coul: 0          0          0         
  0 = max # of 1-2 neighbors
  0 = max # of 1-3 neighbors
  0 = max # of 1-4 neighbors
  1 = max # of special neighbors
  Time spent = 0.00270796 secs
PPPM initialization ...
WARNING: System is not charge neutral, net charge = -0.2048 (../kspace.cpp:302)
  using 12-bit tables for long-range coulomb (../kspace.cpp:321)
  G vector (1/distance) = 0.201681
  grid = 36 50 24
  stencil order = 5
  estimated absolute RMS force accuracy = 0.00105653
  estimated relative force accuracy = 7.33721e-05
  using double precision FFTs
  3d grid and FFT values/proc = 65395 43200
Neighbor list info ...
  update every 1 steps, delay 0 steps, check yes
  max neighbors/atom: 2000, page size: 100000
  master list distance cutoff = 15.3
  ghost atom cutoff = 15.3
  binsize = 7.65, bins = 15 9 5
  3 neighbor lists, perpetual/occasional/extra = 3 0 0
  (1) pair morse, perpetual
      attributes: half, newton on
      pair build: half/bin/newton/tri
      stencil: half/bin/3d/newton/tri
      bin: standard
  (2) pair buck, perpetual, copy from (1)
      attributes: half, newton on
      pair build: copy
      stencil: none
      bin: none
  (3) pair lj/cut/coul/long, perpetual, copy from (1)
      attributes: half, newton on
      pair build: copy
      stencil: none
      bin: none
Setting up Verlet run ...
  Unit style    : metal
  Current step  : 0
  Time step     : 0.001
Per MPI rank memory allocation (min/avg/max) = 145.7 | 145.7 | 145.7 Mbytes
Step Temp Volume Cella Cellb Cellc CellGamma Pxx Pyy Pzz Pxy Pxz Pyz Lx Ly Lz Press PotEng 
       0          375    172711.88       73.664    73.664001       36.752          120   -207036.89   -207099.31   -278077.37    30.826614   -9.5374802    12.753136       73.664    63.794896       36.752   -230737.86   -309191.56 
      10    395.50075    172658.46    73.656405    73.656405    36.748211          120      -207463   -207548.15   -254492.57    128.46282   -28.348082    -196.3963    73.656405    63.788318    36.748211   -223167.91   -309258.01 
      20    672.39055    172501.94     73.63414    73.634141    36.737102          120   -202430.84   -202098.76   -194317.49     38.90439   -274.12613   -433.13606     73.63414    63.769036    36.737102    -199615.7   -309820.09 
      30    700.66631    172255.04    73.598994    73.598994    36.719568          120   -171388.74   -171070.35    -115038.1   -192.55603   -849.12631   -489.45454    73.598994    63.738599    36.719568   -152499.06   -309922.58 
      40    482.67267     171943.1    73.554538    73.554539    36.697388          120   -123111.68   -123455.79   -35005.614   -781.80341   -1156.9053   -519.08531    73.554538      63.7001    36.697388   -93857.694   -309534.45 
      50    574.55727    171598.08    73.505308    73.505308    36.672826          120   -84154.066   -84948.975   -6035.6124   -662.75117   -1139.2592   -636.06429    73.505308    63.657464    36.672826   -58379.551   -309728.21 
      60    856.84394    171243.46    73.454639    73.454639    36.647547          120   -64644.458   -64438.746   -47116.365   -793.74317   -1987.9174   -486.40783    73.454639    63.613584    36.647547   -58733.189   -310294.73 
      70    1016.8603    170887.89    73.403764    73.403764    36.622164          120   -53203.292   -53202.895   -110748.91    -1790.176   -2455.0723   -632.13372    73.403764    63.569525    36.622164   -72385.031   -310653.31 
      80    884.31747    170533.09    73.352927    73.352928    36.596801          120   -47052.385   -48286.561    -156590.1   -1838.9323   -2722.0402    21.040687    73.352927    63.525499    36.596801   -83976.348   -310457.44 
      90    629.18156     170180.9    73.302395    73.302396     36.57159          120   -42594.866   -43336.135   -170152.41   -2047.7273   -3167.7146   -659.64462    73.302395    63.481737     36.57159   -85361.137   -310015.54 
     100    644.48724    169836.72    73.252946    73.252947    36.546919          120   -26794.174   -27060.226   -149359.95   -1829.1541    -2904.393   -1013.8117    73.252946    63.438913    36.546919   -67738.116   -310084.13 
     110      811.337    169511.06    73.206095    73.206096    36.523545          120   -6850.9882   -7302.7082   -107678.69   -1863.3224   -1598.4176    -1257.708    73.206095    63.398339    36.523545   -40610.796   -310447.85 
     120    826.45847    169214.71    73.163409     73.16341    36.502248          120    4078.0478    4018.6157   -58943.758   -1827.2237    -1031.019   -1498.2436    73.163409    63.361372    36.502248   -16949.032   -310524.22 
     130    729.16669    168953.43    73.125732    73.125733    36.483451          120    3407.1584    4644.6312   -20677.789   -1649.1296   -1047.6477   -1617.0053    73.125732    63.328742    36.483451   -4208.6666   -310379.78 
     140     678.3822    168726.28    73.092946    73.092947    36.467093          120   -874.64724   -949.87625   -7621.7963   -1140.6428   -924.56322   -1623.2371    73.092946    63.300349    36.467093   -3148.7733   -310316.68 
     150    721.63485    168526.95    73.064152    73.064153    36.452727          120   -8585.4182   -7771.6487   -27824.174   -1810.4594   -652.86304   -1176.4788    73.064152    63.275412    36.452727    -14727.08   -310435.05 
     160    783.56747     168345.1    73.037862    73.037863    36.439611          120    -18521.86   -17321.654   -61862.554   -1585.3149   -1259.1574   -1421.0308    73.037862    63.252645    36.439611   -32568.689   -310597.31 
     170    776.36688    168169.62    73.012475    73.012476    36.426945          120   -23170.193   -21494.689   -91751.401   -903.37976   -2217.9038   -1559.9792    73.012475    63.230659    36.426945   -45472.094   -310631.41 
     180     705.4628    167992.78    72.986874    72.986875    36.414172          120   -21161.913   -19189.508   -109932.58   -952.88087    -2553.624   -1827.2737    72.986874    63.208488    36.414172   -50094.668   -310542.44 
     190     675.5843    167811.32    72.960586    72.960587    36.401057          120   -17070.217   -15363.902   -110340.05    -415.7652   -2416.4275   -1820.1975    72.960586    63.185722    36.401057   -47591.388   -310526.74 
     200    709.14277    167625.64    72.933665    72.933666    36.387626          120   -12568.576   -12380.706   -92827.349   -738.46013   -2183.0091   -1795.2419    72.933665    63.162408    36.387626   -39258.877   -310632.71 
     210    721.53086    167438.67     72.90654     72.90654    36.374092          120   -7940.0764   -7906.2144   -70638.971   -1102.8865   -1765.8431    -1771.159     72.90654    63.138916    36.374092    -28828.42    -310699.8 
     220    703.93717    167254.27    72.879766    72.879766    36.360735          120   -5312.8973    -3663.669   -52356.812    -1028.359   -1226.6683   -2820.1131    72.879766    63.115729    36.360735   -20444.459   -310707.38 
     230    683.88286     167075.3    72.853761    72.853761     36.34776          120   -5264.5883   -3865.4453   -43466.981   -494.57181   -813.28884   -3412.8014    72.853761    63.093208     36.34776   -17532.338   -310708.51 
     240    680.20858    166902.37    72.828617    72.828617    36.335216          120   -7749.9933   -5728.6955   -45565.117   -160.57254   -1881.2359   -3316.2208    72.828617    63.071433    36.335216   -19681.269   -310740.34 
     250    688.08127    166734.06    72.804127    72.804128    36.322997          120   -9733.4229   -8725.6235    -57567.22    209.71031   -2120.2061   -3334.0503    72.804127    63.050224    36.322997   -25342.089   -310795.98 
     260    692.97241    166567.72    72.779908    72.779909    36.310914          120   -11226.603   -11582.206    -71828.16    333.39974   -2043.6494   -3743.4662    72.779908     63.02925    36.310914   -31545.656   -310847.35 
     270    672.25968     166400.8    72.755589    72.755589    36.298781          120   -11024.361   -12013.028   -81197.478    97.964358   -1767.3156   -2928.8523    72.755589    63.008189    36.298781   -34744.956   -310849.91 
     280    648.95799    166232.19    72.731007    72.731008    36.286517          120   -10002.447   -9084.9284   -82149.166     66.68613   -1311.7604   -1791.5196    72.731007    62.986901    36.286517   -33745.514   -310845.21 
     290    651.33681    166062.68    72.706278    72.706278    36.274179          120    -6421.797   -4489.0892   -74342.384    782.89091   -1027.0203   -1948.6876    72.706278    62.965484    36.274179   -28417.757   -310889.33 
     300    651.62568    165894.72    72.681757    72.681758    36.261945          120   -1788.3407    228.88404   -62853.527    715.67674   -500.80402   -2108.3137    72.681757    62.944249    36.261945   -21470.995   -310928.06 
     310    642.32983    165731.26    72.657877    72.657878    36.250031          120    1591.3128    2659.5016   -49954.752    629.11835    98.769108   -2184.2958    72.657877    62.923568    36.250031   -15234.646   -310947.21 
     320    632.45103    165574.64    72.634983    72.634983    36.238609          120    2948.7808     3035.142   -40934.994    801.24463   -659.75921   -1976.4333    72.634983    62.903741    36.238609   -11650.357   -310964.42 
     330    620.43393    165425.96    72.613234    72.613234    36.227758          120     2927.338    2654.1984   -38912.996    70.859896   -675.09271   -1557.0433    72.613234    62.884906    36.227758   -11110.486   -310976.35 
     340    623.21024    165284.87    72.592585    72.592585    36.217456          120     961.8757    2456.6194   -44559.765   -112.15015   -865.80422   -1833.2856    72.592585    62.867023    36.217456   -13713.757   -311016.32 
     350    618.90041    165149.83     72.57281    72.572811     36.20759          120    495.48751    1612.1032   -54579.016    34.123443   -741.27301   -2372.7626     72.57281    62.849898     36.20759   -17490.475   -311042.92 
     360    600.60475    165018.93    72.553631    72.553631    36.198021          120    757.78565    1985.3564   -62426.412   -483.03554   -508.64479   -2038.0661    72.553631    62.833288    36.198021   -19894.423   -311041.67 
     370    587.74987    164890.87    72.534858    72.534859    36.188655          120    2039.6645    2436.6308   -64680.546   -296.37507   -1357.0971   -2683.1495    72.534858    62.817031    36.188655   -20068.084   -311050.31 
     380    586.75338    164765.45    72.516463    72.516463    36.179478          120    4041.8342    5493.5292   -60283.281   -704.13429    -1321.967   -2820.9714    72.516463    62.801099    36.179478   -16915.973   -311080.44 
     390     583.3631    164643.61    72.498583    72.498584    36.170557          120    6374.5679    7941.9224   -52695.906    -1025.981   -750.95216   -2824.5097    72.498583    62.785615    36.170557   -12793.139   -311104.99 
     400    575.11544    164526.71    72.481421    72.481422    36.161995          120     9036.803    10131.093   -43662.425   -849.69989   -582.26572   -2362.9781    72.481421    62.770753    36.161995   -8164.8429   -311120.32 
     410     566.9389    164416.09    72.465172    72.465173    36.153888          120    9832.9566     11657.31   -37727.759   -723.28794   -638.16538     -2425.29    72.465172    62.756681    36.153888   -5412.4976   -311134.33 
     420    566.37593    164312.28    72.449918    72.449919    36.146278          120    9940.9376     11856.72   -35221.948   -335.87014   -445.48544   -1735.7212    72.449918     62.74347    36.146278   -4474.7632   -311162.92 
     430    558.45182    164215.02    72.435621    72.435622    36.139145          120    9716.6264    11243.531   -37519.138   -88.078889   -558.62694   -1240.2721    72.435621    62.731089    36.139145   -5519.6603   -311175.94 
     440    555.68615     164123.3    72.422132    72.422132    36.132415          120    10029.261    10146.608   -43404.554    390.62793   -261.39699   -789.50307    72.422132    62.719406    36.132415   -7742.8951   -311199.47 
     450    545.67391    164035.72    72.409248    72.409248    36.125986          120    10260.334    9464.1274   -48490.285    548.89481    88.721276   -904.46206    72.409248    62.708248    36.125986    -9588.608   -311208.34 
     460    534.06652    163951.16    72.396804    72.396804    36.119778          120    10935.849    10457.665   -51218.232    877.06862     794.0818   -641.72967    72.396804    62.697472    36.119778   -9941.5727   -311213.21 
     470    527.87668    163869.19    72.384737    72.384737    36.113758          120    12593.068    12585.776   -49748.763    1028.7332    892.09115   -1002.8721    72.384737    62.687022    36.113758   -8189.9731   -311227.07 
     480    532.32065    163790.16    72.373099    72.373099    36.107951          120    13736.998    13043.908   -45227.624    944.07856    62.149273   -582.07041    72.373099    62.676943    36.107951   -6148.9061   -311261.13 
     490    519.62268    163714.64    72.361974    72.361974    36.102401          120    14021.833    15217.024   -38970.939    396.05219   -10.345598   -539.96999    72.361974    62.667308    36.102401   -3244.0272    -311261.5 
     500    515.15435    163643.37    72.351471    72.351472    36.097161          120    15394.743    16457.986   -35293.325   -49.336612      300.451   -1097.2334    72.351471    62.658213    36.097161   -1146.8653   -311277.24 
     510    514.56572    163576.81     72.34166     72.34166    36.092266          120    16041.812    16941.013    -33098.54    -128.3412    704.04274   -319.29873     72.34166    62.649716    36.092266   -38.571534   -311300.16 
     520    512.33587    163514.97    72.332542    72.332543    36.087717          120    16230.925    17020.062   -33822.141   -39.697986    922.20815   -984.16722    72.332542     62.64182    36.087717   -190.38457   -311319.67 
     530    500.45646    163457.38     72.32405    72.324051     36.08348          120    16346.916    16328.459   -37025.239    2.2477435    318.65207   -1017.2089     72.32405    62.634465     36.08348   -1449.9547   -311319.92 
     540    504.14429    163403.23    72.316062    72.316063    36.079495          120    16405.591    16910.069   -41059.976    471.86656   -335.74676   -1060.8381    72.316062    62.627548    36.079495   -2581.4386   -311349.73 
     550    492.98518    163351.77    72.308471    72.308472    36.075708          120    16358.917    18437.106   -42403.899    612.85937    241.74739   -682.78092    72.308471    62.620973    36.075708   -2535.9588   -311350.72 
     560      484.296    163302.81    72.301245    72.301246    36.072103          120    17157.651    19143.321   -40516.296    48.194734     625.2436   -407.26095    72.301245    62.614716    36.072103   -1405.1078   -311355.31 
     570    478.12636    163256.55    72.294418    72.294418    36.068696          120    18802.518    19090.712    -37723.53    84.897497    769.66017    14.239857    72.294418    62.608803    36.068696    56.566819   -311364.61 
     580    478.27455    163213.33    72.288038    72.288039    36.065513          120    19906.904    20297.886   -34953.578     241.3551    1089.2964   -467.64414    72.288038    62.603278    36.065513    1750.4041   -311385.71 
     590    474.44441    163173.59     72.28217    72.282171    36.062586          120    20230.046    21462.867   -32691.819     231.5017    1133.3276   -885.23711     72.28217    62.598196    36.062586    3000.3647   -311398.22 
     600    468.34305    163137.54    72.276847    72.276847     36.05993          120     19936.46    21452.771    -32464.83    204.95068    1788.3445   -885.83321    72.276847    62.593586     36.05993    2974.8001   -311405.92 
     610     465.7278    163104.96    72.272034    72.272035    36.057529          120     20417.98    21676.197   -33250.659   -118.56281    2150.2972   -2045.7436    72.272034    62.589418    36.057529    2947.8393    -311420.3 
     620    466.74394    163075.54     72.26769    72.267691    36.055361          120    20762.334    21540.154   -35353.169   -120.72743    1522.9535   -2433.7046     72.26769    62.585656    36.055361      2316.44   -311441.39 
     630     459.7996    163048.85    72.263747    72.263747    36.053394          120    20552.312    21218.266   -36579.231     -822.944     1284.598   -1561.8134    72.263747    62.582241    36.053394     1730.449   -311446.64 
     640    449.87449    163024.44    72.260141    72.260141    36.051595          120    20775.474    20897.701   -37111.201   -803.17523    823.89229   -1709.8527    72.260141    62.579118    36.051595    1520.6579    -311446.3 
     650     446.4631    163002.07    72.256835    72.256836    36.049946          120    20740.996    20991.633   -37646.346    -245.2455   -290.52784   -1676.8289    72.256835    62.576256    36.049946    1362.0944   -311456.99 
     660    444.83992    162981.58    72.253807    72.253807    36.048435          120    21468.087    20690.435    -35366.26    36.363324   -317.26394   -977.90309    72.253807    62.573633    36.048435    2264.0873   -311470.83 
     670    445.90239    162963.17    72.251086    72.251087    36.047078          120    22161.734    21134.641   -33341.837   -48.397068    370.72945   -1878.7453    72.251086    62.571277    36.047078    3318.1796   -311489.78 
     680    438.64418    162947.14    72.248717    72.248718    36.045896          120    22510.691    22198.981   -32365.078    -282.1346    767.00967   -1314.9909    72.248717    62.569225    36.045896    4114.8643   -311492.49 
     690    434.46808    162933.63    72.246721    72.246721    36.044899          120    21851.464    22442.697   -31612.718   -144.55402    785.55294   -1703.4146    72.246721    62.567496    36.044899    4227.1478   -311499.59 
     700     426.2666    162922.54    72.245082    72.245083    36.044082          120    21779.758    22533.788   -32216.078    672.53009    1647.4418   -1176.6954    72.245082    62.566077    36.044082    4032.4894   -311499.45 
     710    425.55673    162913.68    72.243771    72.243772    36.043428          120    21011.882    22421.484   -32938.018     564.6738    1976.4411   -1598.5765    72.243771    62.564942    36.043428    3498.4495   -311512.89 
     720    423.11674    162906.64    72.242732    72.242732    36.042909          120    19152.128    22096.885   -34685.518    514.98082    1676.3615   -1299.9729    72.242732    62.564042    36.042909    2187.8317   -311522.78 
     730    422.08332    162900.93    72.241887    72.241888    36.042488          120    20097.068    21759.654   -34371.608    821.74194    2033.2408    -1673.712    72.241887     62.56331    36.042488    2495.0378   -311535.62 
     740    419.71215    162896.53    72.241237    72.241237    36.042163          120    20697.319    22464.584   -33736.937    510.59666    1140.7201   -1443.0967    72.241237    62.562747    36.042163    3141.6552   -311544.84 
     750    413.76227    162893.64     72.24081    72.240811    36.041951          120    21680.186     22605.66   -31948.026    1110.2609    1087.9061   -1090.9204     72.24081    62.562378    36.041951    4112.6065   -311546.98 
     760    411.57501    162892.54    72.240647    72.240648    36.041869          120    22231.334    22960.029   -31883.427     654.2451    1449.0201   -590.08132    72.240647    62.562236    36.041869    4435.9788   -311556.03 
     770    408.67107    162893.25    72.240751    72.240752    36.041921          120    21507.107     22253.53   -32263.758    14.528519    1532.0969   -753.99113    72.240751    62.562326    36.041921    3832.2934   -311563.14 
     780    405.81654    162895.49    72.241084    72.241084    36.042087          120     21380.38    22170.807   -31864.183   -73.625031    1455.6455   -1088.2128    72.241084    62.562614    36.042087    3895.6681   -311569.29 
     790     398.9398    162899.21    72.241633    72.241634    36.042361          120     22026.11    22201.106   -32563.624   -94.920572    1424.1122   -1875.3943    72.241633     62.56309    36.042361     3887.864   -311567.98 
     800    401.82422     162904.3    72.242385    72.242386    36.042737          120    21240.934    21742.491    -33192.59   -443.07097    1915.8941   -1176.0949    72.242385    62.563742    36.042737    3263.6118    -311585.6 
     810    396.92958    162910.48    72.243299    72.243299    36.043192          120      21229.1    21195.905   -33136.293   0.51592412    1229.7718    -1268.212    72.243299    62.564533    36.043192    3096.2376   -311587.49 
     820    392.96339    162917.62    72.244354    72.244354    36.043719          120    21247.209    21258.742   -33282.397   -509.47996    1285.5044   -2143.4868    72.244354    62.565446    36.043719     3074.518    -311590.3 
     830    392.39381    162925.67    72.245545    72.245545    36.044313          120    21999.253    21088.335   -33725.982   -977.88873    1376.3301   -1631.8105    72.245545    62.566477    36.044313    3120.5351   -311599.63 
     840     388.6091    162934.62    72.246866    72.246867    36.044972          120    21713.848    20984.572   -33340.982   -548.88646    1718.6456   -1909.9902    72.246866    62.567622    36.044972    3119.1458   -311602.31 
     850    391.76105    162944.42    72.248316    72.248316    36.045695          120    21943.995    21016.106   -32766.021    695.07488    2283.0929   -1830.6607    72.248316    62.568877    36.045695    3398.0268   -311618.12 
     860    384.75603    162955.16    72.249903    72.249903    36.046487          120    22368.615    21148.674   -32461.821    1316.9736    1817.8202   -2180.3744    72.249903    62.570252    36.046487     3685.156   -311614.12 
     870    382.22771    162966.92     72.25164    72.251641    36.047354          120    23040.242    20738.868   -31282.076    1517.2408    984.91798   -2789.1194     72.25164    62.571756    36.047354     4165.678   -311618.43 
     880     380.0743    162979.81    72.253546    72.253547    36.048305          120     22681.18     21369.31   -31864.011     1339.146    275.44152   -1925.1393    72.253546    62.573407    36.048305    4062.1597   -311622.83 
     890    376.95597    162993.76    72.255607    72.255608    36.049333          120     21507.14    20911.668   -32697.943    158.15718    1132.5538   -2427.2692    72.255607    62.575192    36.049333    3240.2881   -311624.67 
     900    379.42627    163008.42    72.257774    72.257774    36.050414          120    21356.694    20334.188   -33975.605    283.38317    1241.9705   -2117.5519    72.257774    62.577068    36.050414    2571.7594   -311636.97 
     910    375.28701     163023.5    72.260001    72.260002    36.051525          120    20530.514    20323.192    -34556.94    837.03943    1263.3137   -2043.7045    72.260001    62.578997    36.051525    2098.9222    -311636.8 
     920    375.42018    163038.79     72.26226    72.262261    36.052652          120    20811.808    20329.355   -34717.504    721.69611    1316.4394   -1718.3843     72.26226    62.580954    36.052652    2141.2198   -311643.95 
     930     372.4074     163054.3    72.264552    72.264552    36.053796          120    21344.585    20467.095   -34062.361     608.2333    1730.2361   -1738.1488    72.264552    62.582938    36.053796    2583.1065   -311644.53 
     940    368.92614    163070.22    72.266903    72.266904    36.054969          120    21600.224     21039.35   -33052.135    647.72293     1405.427   -2027.0057    72.266903    62.584975    36.054969    3195.8129   -311643.77 
     950    370.09343    163086.74    72.269343    72.269344    36.056186          120    21611.589    21047.915   -33042.597    84.677857    1485.7579   -2227.3739    72.269343    62.587088    36.056186    3205.6354    -311651.6 
     960    365.66668    163103.83    72.271868    72.271869    36.057446          120    21116.629    20381.549   -33931.602   -172.29936    1317.2666    -2354.596    72.271868    62.589274    36.057446    2522.1921   -311648.83 
     970    366.03082    163121.26    72.274442    72.274443     36.05873          120    20740.554    20627.933   -33983.807    582.48649    912.25216   -1710.9468    72.274442    62.591504     36.05873    2461.5599   -311654.01 
     980    366.42563    163138.94    72.277053    72.277054    36.060033          120    20201.731    20141.894   -34519.177   -45.480127    343.05983   -1566.8003    72.277053    62.593765    36.060033    1941.4826   -311659.75 
     990    365.16636    163156.69    72.279675    72.279675    36.061341          120    19763.115    20036.345   -35240.895   -110.07612   -13.192996   -2145.2167    72.279675    62.596035    36.061341    1519.5216   -311661.26 
    1000     365.7294    163174.33     72.28228    72.282281    36.062641          120    19906.645    19280.962   -35808.808    648.07852    762.19165   -1523.7449     72.28228    62.598292    36.062641    1126.2664   -311666.26 
Loop time of 305.775 on 1 procs for 1000 steps with 14848 atoms

Performance: 0.283 ns/day, 84.937 hours/ns, 3.270 timesteps/s
100.0% CPU use with 1 MPI tasks x no OpenMP threads

MPI task timing breakdown:
Section |  min time  |  avg time  |  max time  |%varavg| %total
---------------------------------------------------------------
Pair    | 238.5      | 238.5      | 238.5      |   0.0 | 78.00
Bond    | 0.0002768  | 0.0002768  | 0.0002768  |   0.0 |  0.00
Kspace  | 10.974     | 10.974     | 10.974     |   0.0 |  3.59
Neigh   | 49.562     | 49.562     | 49.562     |   0.0 | 16.21
Comm    | 0.45343    | 0.45343    | 0.45343    |   0.0 |  0.15
Output  | 0.010627   | 0.010627   | 0.010627   |   0.0 |  0.00
Modify  | 6.1684     | 6.1684     | 6.1684     |   0.0 |  2.02
Other   |            | 0.1101     |            |       |  0.04

Nlocal:    14848 ave 14848 max 14848 min
Histogram: 1 0 0 0 0 0 0 0 0 0
Nghost:    46843 ave 46843 max 46843 min
Histogram: 1 0 0 0 0 0 0 0 0 0
Neighs:    1.00866e+07 ave 1.00866e+07 max 1.00866e+07 min
Histogram: 1 0 0 0 0 0 0 0 0 0

Total # of neighbors = 10086552
Ave neighs/atom = 679.321
Ave special neighs/atom = 0
Neighbor list builds = 179
Dangerous builds = 0
PPPM initialization ...
  using 12-bit tables for long-range coulomb (../kspace.cpp:321)
  G vector (1/distance) = 0.20261
  grid = 36 50 24
  stencil order = 5
  estimated absolute RMS force accuracy = 0.000997324
  estimated relative force accuracy = 6.92603e-05
  using double precision FFTs
  3d grid and FFT values/proc = 65395 43200
Setting up Verlet run ...
  Unit style    : metal
  Current step  : 0
  Time step     : 0.001
Per MPI rank memory allocation (min/avg/max) = 151.5 | 151.5 | 151.5 Mbytes
Step Temp Volume Cella Cellb Cellc CellGamma Pxx Pyy Pzz Pxy Pxz Pyz Lx Ly Lz Press PotEng 
       0     365.7294    163174.33     72.28228    72.282281    36.062641          120    19918.682     19293.44    -35802.57    648.65396    762.24779    -1523.774     72.28228    62.598292    36.062641    1136.5176   -311666.09 
      10    364.22813    163191.73    72.284849     72.28485    36.063922          120     19621.79    20114.835   -36206.597    666.65166    1181.9555    -1097.002    72.284849    62.600516    36.063922    1176.6763   -311665.99 
      20    364.23987    163208.91    72.287385    72.287385    36.065187          120    19599.873    19640.553   -35558.567    392.52706    1123.2787    -934.5646    72.287385    62.602712    36.065187    1227.2862   -311668.73 
      30    360.66704    163225.86    72.289887    72.289888    36.066436          120    19774.415    18074.028   -35566.038    247.88734    502.44413   -1221.5619    72.289887    62.604879    36.066436    760.80176   -311663.76 
      40     363.3086    163242.49    72.292343    72.292343    36.067661          120    19256.944    18862.984    -34009.03    233.16086    320.68455   -2337.5933    72.292343    62.607006    36.067661    1370.2994   -311670.95 
      50    364.56883    163258.99    72.294778    72.294778    36.068876          120    19126.721    18495.619   -34452.573    55.285564    58.928348   -1932.8517    72.294778    62.609115    36.068876     1056.589   -311674.44 
      60    360.13774    163275.25    72.297178    72.297179    36.070074          120    19255.291    17769.818   -35275.597    442.94891     299.3441   -1827.6179    72.297178    62.611194    36.070074    583.17061   -311666.63 
      70     360.3884    163291.12     72.29952    72.299521    36.071242          120    19092.873    17238.542   -35491.087    227.41026    865.90199   -1158.5394     72.29952    62.613222    36.071242    280.10949   -311667.75 
      80    361.61518    163306.49    72.301788    72.301789    36.072373          120    18448.476    17509.497   -35748.965   -99.490177    274.29008   -302.09955    72.301788    62.615186    36.072373    69.669238   -311669.91 
      90    362.02326     163321.3    72.303974    72.303975    36.073464          120    18388.162    17810.577   -35982.421   -237.64497    442.65616   -751.67439    72.303974    62.617079    36.073464    72.106106   -311670.26 
     100    363.73416    163335.58    72.306081    72.306082    36.074515          120    18645.173    18166.141   -35689.835   -217.33764    827.66993   -1007.3332    72.306081    62.618904    36.074515    373.82648   -311672.64 
     110    361.92967    163349.46     72.30813    72.308131    36.075538          120    18543.109    18744.386    -35367.26    472.29551    740.91048   -778.77517     72.30813    62.620679    36.075538    640.07822   -311667.23 
     120    364.99201    163363.04    72.310134    72.310134    36.076537          120    18032.442    18084.127   -36101.852    1102.9497    249.70564    -1296.193    72.310134    62.622413    36.076537    4.9052661   -311670.57 
     130    364.18556    163376.11    72.312062    72.312062    36.077499          120    17658.671    17440.708   -36777.831    1022.1717     500.4544   -2316.9226    72.312062    62.624083    36.077499   -559.48409   -311666.45 
     140    361.29627    163388.48    72.313888    72.313888     36.07841          120    17411.525     18231.85   -36491.255    924.67865    526.45565   -2092.7329    72.313888    62.625664     36.07841   -282.62677    -311657.6 
     150    364.70383    163400.29    72.315629     72.31563    36.079279          120    18111.453    18847.012   -35718.915   -217.32205    401.39314   -1417.6963    72.315629    62.627173    36.079279    413.18339   -311660.78 
     160    366.67983    163411.79    72.317325    72.317326    36.080125          120    18527.803    18393.554   -35769.278   -296.28644    636.41102   -1368.3327    72.317325    62.628641    36.080125    384.02648   -311660.56 
     170    369.17724    163423.01     72.31898    72.318981    36.080951          120    18227.006    17907.088   -36282.281    236.70155   -125.69694   -981.45395     72.31898    62.630075    36.080951   -49.395579   -311660.49 
     180    372.26564    163433.81    72.320573    72.320574    36.081746          120    17995.122    18332.956   -36366.114   -214.17831    331.60848   -1391.0367    72.320573    62.631454    36.081746   -12.678541   -311662.83 
     190    373.40555    163444.19    72.322105    72.322106     36.08251          120     17571.03    18228.575   -36377.122    18.958828    842.58118   -1214.5312    72.322105    62.632781     36.08251   -192.50551   -311660.94 
     200    368.20859     163454.1    72.323567    72.323567    36.083239          120    17229.617    17808.688   -37288.389    346.55769   -216.00361   -685.21947    72.323567    62.634047    36.083239   -750.02811   -311647.37 
     210    373.24688    163463.35     72.32493    72.324931    36.083919          120    18120.499    16787.289   -37894.554    305.30928   -454.59995   -1145.0037     72.32493    62.635228    36.083919   -995.58858   -311652.24 
     220    371.52277    163471.86    72.326186    72.326186    36.084546          120     18202.36    16699.313   -37488.022   -79.712956   -32.055864   -1505.0181    72.326186    62.636315    36.084546   -862.11626   -311644.03 
     230    377.37875    163479.73    72.327346    72.327347    36.085125          120    18143.966    17420.181   -36497.182    318.23247    244.25785   -2635.7978    72.327346     62.63732    36.085125   -311.01153    -311651.3 
     240    373.95061    163487.21     72.32845     72.32845    36.085675          120    19243.281    19122.856   -35911.555    190.01187    494.33763    -2586.131     72.32845    62.638276    36.085675    818.19385   -311640.77 
     250    380.05266    163494.74    72.329559     72.32956    36.086229          120     20075.94    19192.506   -35253.958    361.41793    909.79262   -2205.1665    72.329559    62.639236    36.086229    1338.1628   -311648.25 
     260    380.35583    163502.53    72.330709     72.33071    36.086803          120     20536.39    19100.163   -35201.599    142.76803    1213.0143   -1525.5753    72.330709    62.640232    36.086803     1478.318   -311644.68 
     270    381.61799     163510.6    72.331898    72.331899    36.087396          120    19249.814    18256.609   -36306.778   -185.71984    1347.3757   -1348.0981    72.331898    62.641262    36.087396    399.88167   -311643.49 
     280    376.72513    163518.57    72.333074    72.333074    36.087982          120    18573.258    18344.149   -37576.287    430.92065    705.08564   -1232.6367    72.333074     62.64228    36.087982   -219.62674   -311630.39 
     290     381.0102    163526.19    72.334198    72.334198    36.088543          120    18675.468    18223.066    -37749.62    906.13546    896.12955   -1020.5032    72.334198    62.643254    36.088543   -283.69547   -311635.22 
     300      382.228    163533.47     72.33527    72.335271    36.089078          120    18731.362    18497.172   -36136.437    765.16359    957.99725   -1527.3242     72.33527    62.644182    36.089078    364.03249   -311634.54 
     310    381.76074    163540.61    72.336324    72.336324    36.089604          120    18933.139    17981.525   -35655.221    668.94424    502.57234   -1004.4534    72.336324    62.645095    36.089604    419.81447   -311630.99 
     320    384.88627    163547.64     72.33736    72.337361    36.090121          120    18720.488     17372.81   -37243.548    1239.8388    349.82399   -1381.7281     72.33736    62.645992    36.090121   -383.41661    -311635.2 
     330    385.98546    163554.28     72.33834     72.33834     36.09061          120    18917.889    16307.642   -37669.184    1009.6882    665.80207   -1932.0654     72.33834     62.64684     36.09061   -814.55097   -311635.05 
     340    385.13407    163560.38    72.339239    72.339239    36.091058          120    17636.999     16619.04   -36757.367    1449.5456    473.77766   -1272.7761    72.339239    62.647619    36.091058   -833.77584   -311631.82 
     350    382.73556    163565.94    72.340057    72.340058    36.091466          120    17438.961    17377.089   -36792.748    1657.9402    665.56355    -1479.444    72.340057    62.648328    36.091466   -658.89944   -311625.71 
     360    387.57868    163571.03    72.340808    72.340808    36.091841          120    18742.987    17110.197   -37092.231    1455.9616    914.09845   -1224.9367    72.340808    62.648978    36.091841   -413.01564   -311633.96 
     370    385.64936    163575.78    72.341508    72.341509     36.09219          120    19862.757    16844.307   -36821.235    2015.9625    616.58638   -966.03295    72.341508    62.649585     36.09219   -38.056856   -311629.83 
     380    384.59385    163580.33    72.342179     72.34218    36.092525          120    20147.594    16851.809   -36888.009      2010.68    1081.9315   -1511.1873    72.342179    62.650166    36.092525    37.130972   -311628.38 
     390    384.03155    163584.74     72.34283    72.342831     36.09285          120    20482.222    16509.773   -36995.066     1665.452    1042.2913   -1846.2585     72.34283    62.650729     36.09285   -1.0235482   -311627.69 
     400    385.43737    163588.98    72.343455    72.343455    36.093162          120    19137.393    16680.754   -37505.252    1974.0773    1242.1262   -1912.8013    72.343455     62.65127    36.093162   -562.36828   -311631.15 
     410    386.02833    163592.84    72.344024    72.344024    36.093445          120    18011.556    16526.984   -38081.702    1937.2296    1214.9288   -2056.8307    72.344024    62.651763    36.093445   -1181.0541   -311633.64 
     420    381.33695    163596.14     72.34451     72.34451    36.093688          120    17764.118     16649.97   -36785.805    1616.1179    1445.6154   -1566.0931     72.34451    62.652184    36.093688   -790.57234   -311625.78 
     430    383.56166    163598.98    72.344928    72.344929    36.093897          120    18015.496    17257.598   -36893.379    1857.5864    1047.3901   -1627.7513    72.344928    62.652546    36.093897   -540.09486   -311631.49 
     440    385.41586     163601.5      72.3453      72.3453    36.094082          120    18141.892    17201.144   -36277.724    1873.9754    590.24584   -1614.2568      72.3453    62.652868    36.094082   -311.56264   -311637.79 
     450    383.38815    163603.82    72.345641    72.345642    36.094252          120    18691.526    17450.119   -36383.069    1608.7824   -155.26708   -1463.4346    72.345641    62.653164    36.094252   -80.474837    -311636.5 
     460    385.19885    163606.01    72.345964    72.345965    36.094414          120    18402.228    17269.443   -36747.676    2253.4586   -88.000262   -618.00588    72.345964    62.653444    36.094414   -358.66837   -311643.23 
     470    381.08169    163607.99    72.346257    72.346257    36.094559          120    18795.662    16662.207   -37533.154    2082.8365    589.59814   -565.60349    72.346257    62.653697    36.094559   -691.76193   -311638.43 
     480    383.57995    163609.63    72.346499    72.346499     36.09468          120    18538.643    16671.634   -38174.253    1100.7283    802.86066   -1534.7389    72.346499    62.653906     36.09468   -987.99174   -311646.68 
     490    382.93091    163610.82    72.346673    72.346674    36.094767          120    17517.003    16645.206   -37762.928    1021.1877    1095.0644   -1911.9662    72.346673    62.654058    36.094767   -1200.2398   -311648.94 
     500    378.83313    163611.53    72.346778    72.346778    36.094819          120    17922.776    16812.838   -35807.208    1046.7816    1672.7396   -1781.8723    72.346778    62.654148    36.094819   -357.19792   -311645.47 
     510    378.86292    163612.01    72.346849     72.34685    36.094855          120    17158.542    16905.339   -35293.745    1282.1197    1907.6475   -1430.9261    72.346849     62.65421    36.094855   -409.95483   -311649.84 
     520    373.89449     163612.3    72.346893    72.346893    36.094877          120    17459.219    16915.818   -36372.579    1582.1821    709.60168   -1522.5037    72.346893    62.654247    36.094877   -665.84724   -311643.81 
     530     375.2545    163612.34    72.346898    72.346898    36.094879          120    18194.012    16265.332   -36293.353    1211.8554    917.86081    -1837.712    72.346898    62.654252    36.094879   -611.33641   -311650.55 
     540    375.22992    163612.08     72.34686     72.34686     36.09486          120     17594.32      15502.6   -36647.491    777.85087     559.4877   -2020.9662     72.34686    62.654219     36.09486   -1183.5235   -311654.23 
     550    376.41334    163611.38    72.346756    72.346756    36.094808          120    17825.423     16215.51   -36892.127    669.39075    235.00636   -1760.5272    72.346756    62.654129    36.094808   -950.39812   -311660.45 
     560    373.62672    163610.29    72.346596    72.346596    36.094729          120    17717.775    16418.613   -37653.075    750.44791    139.32843   -1847.4117    72.346596     62.65399    36.094729   -1172.2291    -311658.8 
     570    372.24923    163608.76     72.34637     72.34637    36.094616          120    17600.435    16257.868   -37793.526    1086.8787   -402.50369   -1535.6047     72.34637    62.653795    36.094616   -1311.7414   -311659.68 
     580    371.29146    163606.73    72.346071    72.346071    36.094467          120    17360.273    16499.715   -37688.873     845.4266   -173.00529   -1645.9983    72.346071    62.653536    36.094467   -1276.2947   -311661.21 
     590    374.46988    163604.25    72.345705    72.345706    36.094284          120    17151.343    17292.198    -37439.01    528.23654    48.702679   -1171.5835    72.345705    62.653219    36.094284   -998.48959   -311670.52 
     600     372.2814    163601.46    72.345294    72.345294    36.094079          120    17803.788    17933.794    -36884.26    438.43635    321.87116   -1707.4661    72.345294    62.652863    36.094079   -382.22619   -311669.98 
     610    371.03217    163598.57    72.344869    72.344869    36.093867          120    18165.288    17280.471   -36435.902    1015.6944    553.31669   -2023.3109    72.344869    62.652495    36.093867   -330.04782   -311671.13 
     620    371.58386    163595.63    72.344434    72.344435     36.09365          120    17985.579    16890.483   -36563.502    1346.5531    659.25845   -2231.5218    72.344434    62.652118     36.09365   -562.47988    -311675.6 
     630    370.08179    163592.54    72.343979    72.343979    36.093423          120    18306.923    16452.661   -37014.761     1438.239    606.74395   -2184.3779    72.343979    62.651724    36.093423   -751.72542   -311675.67 
     640    367.18024    163589.21    72.343488    72.343488    36.093178          120    17738.977    15555.772   -37781.479     836.7155    955.85025   -1570.7687    72.343488    62.651299    36.093178   -1495.5767   -311673.06 
     650    364.77465    163585.41    72.342929    72.342929    36.092899          120    18246.343    16180.276    -38284.28     629.6105    871.06589   -1483.7643    72.342929    62.650815    36.092899    -1285.887   -311669.94 
     660    368.10831    163581.21     72.34231     72.34231     36.09259          120    18403.442    17351.877   -38260.246    675.58894    169.93015   -1519.8965     72.34231    62.650278     36.09259   -834.97569   -311678.37 
     670    364.32819    163576.79    72.341657    72.341657    36.092265          120    19214.371    16925.562   -37822.244     545.0793   -303.05389   -1924.9002    72.341657    62.649713    36.092265   -560.77024   -311672.86 
     680    367.04226    163572.26     72.34099    72.340991    36.091932          120    19617.221    17122.326   -37534.365    344.67848   -50.773544   -1461.7539     72.34099    62.649136    36.091932   -264.93904   -311679.38 
     690    365.76446    163567.75    72.340326    72.340326      36.0916          120     20310.25     16652.88    -37817.48    612.91366   -124.14842   -772.71302    72.340326     62.64856      36.0916   -284.78333   -311678.13 
     700    368.39056    163563.24     72.33966     72.33966    36.091268          120    19435.462    16509.317   -37982.459    1548.1105   -198.47928   -744.67323     72.33966    62.647984    36.091268   -679.22689   -311683.78 
     710     365.2264    163558.62    72.338979     72.33898    36.090929          120    19584.886    17635.837   -37124.912     1449.245   -605.95325   -749.64502    72.338979    62.647394    36.090929    31.937055   -311678.27 
     720     367.0031    163554.14    72.338318    72.338319    36.090599          120    19914.841    18741.673   -36868.387    1701.3643    408.82143   -988.75947    72.338318    62.646822    36.090599    596.04246   -311681.57 
     730    368.51489       163550    72.337708    72.337709    36.090294          120    19997.222    18522.916   -37043.911    1200.6454    553.29534   -905.25895    72.337708    62.646293    36.090294    492.07542      -311684 
     740    367.24279    163546.17    72.337144    72.337145    36.090013          120    19767.071    17774.744   -38055.858    950.69179    947.95513   -1246.9477    72.337144    62.645805    36.090013   -171.34778   -311681.14 
     750    366.21898     163542.4    72.336587    72.336588    36.089735          120    19289.762    17470.026   -39343.775    1333.4054    533.36874    -1338.689    72.336587    62.645323    36.089735    -861.3291   -311677.77 
     760    367.35254    163538.42    72.336001    72.336002    36.089443          120     20059.12    17188.824   -38632.423    1373.5365   -26.291693   -1468.4909    72.336001    62.644815    36.089443   -461.49295   -311678.65 
     770    366.25304    163534.37    72.335403    72.335404    36.089144          120     20266.58    17568.945   -37937.602    1294.8688    830.65369   -1883.5733    72.335403    62.644297    36.089144   -34.025486   -311675.09 
     780    369.12947    163530.39    72.334817    72.334817    36.088852          120     19343.34    17681.529   -37187.521    1140.8719    629.14275   -1355.1068    72.334817    62.643789    36.088852   -54.217117   -311678.91 
     790    367.48334    163526.52    72.334246    72.334246    36.088567          120    19837.493    17330.661   -36192.316     508.7828    690.02216   -689.38125    72.334246    62.643295    36.088567    325.27918   -311673.69 
     800    369.45139    163522.88     72.33371    72.333711      36.0883          120    20221.853    17713.779   -36323.742    586.42703     844.7632   -780.45891     72.33371    62.642831      36.0883    537.29674   -311675.83 
     810    376.26826    163519.55    72.333219    72.333219    36.088055          120    18990.409    18144.422   -36392.136    55.318216    665.08035   -1084.2734    72.333219    62.642406    36.088055    247.56492   -311686.17 
     820    370.98381    163516.44     72.33276    72.332761    36.087826          120    19633.163    17564.628   -36043.009   -203.17098    515.41506   -920.69481     72.33276    62.642008    36.087826     384.9271   -311673.19 
     830    373.93479    163513.54    72.332333    72.332333    36.087612          120    19300.038    17630.447   -36476.209    191.81415    42.884621   -1178.4189    72.332333    62.641638    36.087612    151.42547    -311676.3 
     840    373.72227    163510.81    72.331929     72.33193    36.087411          120    19357.546    18032.463   -36590.348    996.31633     577.7138    -970.2048    72.331929    62.641289    36.087411    266.55342   -311672.82 
     850    374.92267    163508.25    72.331552    72.331553    36.087223          120    18896.584     17776.61    -35998.17    1524.8993    889.57963    -690.2181    72.331552    62.640963    36.087223    225.00783   -311672.71 
     860    373.71927    163505.88    72.331203    72.331204    36.087049          120    19185.386    18011.144   -35277.735    1722.8637     1495.392   -274.13303    72.331203     62.64066    36.087049    639.59845   -311667.64 
     870    372.43221    163503.84    72.330902    72.330903    36.086899          120    20034.503    17885.798   -34820.309    1595.3938    965.18922   -866.54984    72.330902      62.6404    36.086899     1033.331   -311662.41 
     880    372.30185    163502.26    72.330669     72.33067    36.086783          120    19904.527    18390.338   -35175.441    1367.7423    1003.1889   -1250.1349    72.330669    62.640198    36.086783     1039.808   -311659.22 
     890    377.20717    163501.15    72.330505    72.330505    36.086701          120    20102.287    18220.071   -34984.906    1163.3423    581.12364   -1595.6805    72.330505    62.640055    36.086701     1112.484   -311665.88 
     900    375.69824    163500.54    72.330415    72.330415    36.086656          120    20620.549    18769.715   -34872.928    992.20868   -266.12535   -2295.9807    72.330415    62.639977    36.086656    1505.7784   -311660.79 
     910    376.19627    163500.53    72.330414    72.330415    36.086656          120    20085.228     18473.99   -34806.909    851.79075   -656.68359   -2603.7864    72.330414    62.639977    36.086656    1250.7697   -311658.64 
     920    380.98409    163501.06    72.330492    72.330493    36.086694          120    20066.234    18782.439   -35462.536    627.41883   -747.08804   -2633.0784    72.330492    62.640044    36.086694    1128.7123   -311664.86 
     930    379.87899    163502.03    72.330635    72.330636    36.086766          120    20049.428    18207.289    -35626.92     1010.754    148.66891   -2505.3288    72.330635    62.640168    36.086766    876.59899   -311660.55 
     940     380.3513    163503.35     72.33083    72.330831    36.086863          120     20825.92    17655.958   -35838.893    949.11091   -26.938756   -2312.8487     72.33083    62.640337    36.086863    880.99513   -311659.25 
     950    379.91348    163504.99    72.331071    72.331072    36.086983          120    20216.144    17177.995    -35251.18    600.32948    379.35148   -2263.4808    72.331071    62.640546    36.086983    714.31984   -311656.29 
     960    379.64909    163506.85    72.331345    72.331346     36.08712          120    19580.282    16504.125   -36247.992    202.40318    579.28181   -1618.6499    72.331345    62.640783     36.08712   -54.528272   -311654.05 
     970    385.66926    163508.64    72.331609     72.33161    36.087252          120    19057.258    16766.426   -36902.839    189.70998    758.22746   -803.56126    72.331609    62.641012    36.087252   -359.71836   -311664.31 
     980    380.15683    163510.23    72.331845    72.331845    36.087369          120    18746.918    16596.712   -36276.499    243.04093     262.5068   -512.35181    72.331845    62.641216    36.087369   -310.95619   -311652.83 
     990    382.99126    163511.67    72.332057    72.332057    36.087475          120    18900.996    16570.892   -35887.874    530.77087    862.93347   -863.56067    72.332057    62.641399    36.087475   -138.66229   -311657.48 
    1000    381.17008    163513.03    72.332257    72.332257    36.087575          120    19890.044    17808.381   -36182.118    744.36743    1211.6243   -1177.3794    72.332257    62.641573    36.087575    505.43579    -311653.4 
    1010    381.36452    163514.55    72.332481    72.332482    36.087687          120    20586.494    18392.204   -35635.123    505.41343    602.14455   -923.34061    72.332481    62.641767    36.087687    1114.5249   -311652.63 
    1020    386.10944    163516.47    72.332764    72.332765    36.087828          120    20507.001    17750.103   -35283.328    1090.1862    651.10617   -777.57362    72.332764    62.642012    36.087828    991.25838   -311661.82 
    1030    382.72576    163518.75      72.3331      72.3331    36.087995          120    20425.231    17519.884   -35791.339    1019.1663    -35.00073   -865.52842      72.3331    62.642303    36.087995    717.92562   -311655.87 
    1040    382.52831    163521.28    72.333474    72.333474    36.088182          120    19965.747    18543.694    -35279.45    1146.5223    49.414656   -1979.2562    72.333474    62.642626    36.088182    1076.6637   -311655.76 
    1050     381.6048    163524.18      72.3339    72.333901    36.088395          120    19947.076    18672.853   -35316.986    956.89032    171.80759   -820.44652      72.3339    62.642996    36.088395    1100.9808   -311654.63 
    1060    379.16947    163527.43    72.334381    72.334381    36.088634          120    19228.545    18287.598   -35463.445    674.77705     46.73821   -710.17369    72.334381    62.643412    36.088634     684.2327   -311651.58 
    1070    381.80283    163530.87    72.334888    72.334889    36.088887          120    18481.978    18001.503   -35925.433    485.50768   -181.18907   -1887.2578    72.334888    62.643851    36.088887    186.01599   -311657.97 
    1080    379.85403    163534.34    72.335399    72.335399    36.089142          120    19202.706    18659.822   -35998.649     1200.098   -146.40167   -1599.5233    72.335399    62.644294    36.089142    621.29292   -311655.94 
    1090    380.06054    163537.94     72.33593    72.335931    36.089407          120     20377.66     18257.45   -36540.414    605.90353    361.66754   -907.55961     72.33593    62.644754    36.089407    698.23217   -311657.69 
    1100    381.00993    163541.73    72.336489     72.33649    36.089686          120     20399.48    18230.741   -37095.989    637.18163    913.48577   -798.62837    72.336489    62.645238    36.089686    511.41058   -311661.27 
    1110    380.63593    163545.64    72.337065    72.337066    36.089974          120    19582.756     17176.79   -37327.087    1440.0242    173.75572   -1230.3965    72.337065    62.645737    36.089974   -189.18003   -311662.91 
    1120    379.82025    163549.37    72.337615    72.337616    36.090248          120    18272.979    16418.307   -37554.873    1256.1724   -708.03452    -1692.245    72.337615    62.646213    36.090248   -954.52884   -311663.52 
    1130     381.5409    163552.64    72.338098    72.338098    36.090489          120    18781.586    17164.926   -38331.859    1077.0378   -699.71853   -1904.6813    72.338098    62.646631    36.090489   -795.11554   -311669.31 
    1140     379.6986    163555.55    72.338527    72.338527    36.090703          120    19758.924    18464.119   -37594.826    1270.5016   -124.48076   -1620.7417    72.338527    62.647002    36.090703    209.40553   -311668.56 
    1150    380.73677    163558.47    72.338956    72.338957    36.090917          120    19913.556    19132.129   -36442.469    939.62488    133.84922   -1667.0848    72.338956    62.647374    36.090917    867.73901   -311673.32 
    1160    379.77915    163561.66    72.339427    72.339428    36.091152          120    20369.895    18638.547   -35797.104    1025.5968  -0.67808299   -1617.7126    72.339427    62.647782    36.091152    1070.4461   -311674.34 
    1170    374.88366     163565.2    72.339948    72.339949    36.091412          120    19992.077    18407.683   -36534.318    996.88873    313.14063   -1892.3714    72.339948    62.648233    36.091412     621.8138   -311668.12 
    1180    376.32985    163568.93    72.340499      72.3405    36.091687          120    20011.346    18623.064   -36002.425    1620.9142    35.653816    -2078.622    72.340499    62.648711    36.091687    877.32812   -311673.49 
    1190    375.74892    163572.92    72.341087    72.341087     36.09198          120    19862.779    19057.569    -36962.79    1129.2974   -61.829524   -1905.8354    72.341087    62.649219     36.09198    652.51941   -311675.34 
    1200    372.70141    163577.08      72.3417    72.341701    36.092286          120    20325.897    18493.015   -36695.294    419.24992   -110.61463   -1495.8663      72.3417    62.649751    36.092286    707.87264   -311672.44 
    1210    371.07025    163581.41    72.342339     72.34234    36.092605          120    20865.293    17673.505   -36908.392   -320.45841   -697.51531   -871.60844    72.342339    62.650304    36.092605    543.46847   -311672.01 
    1220    373.47032    163585.84    72.342992    72.342992    36.092931          120    20382.302    17074.411    -38049.02   -609.28962   -609.01465   -1144.0417    72.342992    62.650869    36.092931   -197.43562   -311679.66 
    1230    371.71801    163590.11    72.343622    72.343622    36.093245          120    20410.508    16708.543   -37874.988    730.34544   -105.21491   -1602.9086    72.343622    62.651415    36.093245   -251.97916   -311679.24 
    1240    372.67609     163594.2    72.344223    72.344224    36.093545          120    20700.939    16565.247   -36570.266    1149.2837    552.74586   -1795.9579    72.344223    62.651936    36.093545     231.9732   -311683.59 
    1250    373.17156    163598.25    72.344821    72.344821    36.093843          120    20223.266     17135.74   -36583.946    856.03812    1316.4394   -1744.6952    72.344821    62.652453    36.093843    258.35346   -311686.92 
    1260    369.59698    163602.34    72.345423    72.345424    36.094144          120    20454.464    18111.567   -36473.929    1358.6074   -123.52854   -955.92963    72.345423    62.652975    36.094144    697.36748   -311682.69 
    1270    369.87189    163606.59    72.346051    72.346051    36.094457          120    20412.864    17763.523   -35741.991     1376.939    556.75799   -1254.2854    72.346051    62.653518    36.094457     811.4652   -311685.31 
    1280    369.94072    163611.05    72.346707    72.346708    36.094784          120    19266.331    17460.655   -35996.644    1403.7696    156.14554   -1242.0149    72.346707    62.654087    36.094784    243.44759   -311687.16 
    1290    370.88958    163615.46    72.347358    72.347359    36.095109          120    18634.967    16507.353   -37065.806    1358.1071    116.31827   -1529.8328    72.347358    62.654651    36.095109   -641.16195   -311691.09 
    1300    370.20489    163619.55     72.34796    72.347961    36.095409          120    19071.318    16556.901   -37217.198    1529.2002    372.38264   -2174.1043     72.34796    62.655172    36.095409    -529.6597   -311691.25 
    1310    369.25793    163623.33    72.348518    72.348519    36.095688          120     19328.62    16660.271   -36290.987    1665.4327    431.26846   -2353.6915    72.348518    62.655655    36.095688   -100.69856   -311690.78 
    1320    367.89629    163626.96    72.349052    72.349053    36.095954          120    18736.649    17047.001    -36527.81    730.20943    786.27376   -2167.5504    72.349052    62.656118    36.095954   -248.05339   -311689.36 
    1330    366.72162     163630.4     72.34956     72.34956    36.096207          120    19158.586    17107.844   -37033.975    858.75919    906.52004   -1428.6176     72.34956    62.656557    36.096207   -255.84799   -311688.12 
    1340    370.23261    163633.65    72.350039    72.350039    36.096446          120    19444.135     16504.95   -37217.925    454.50864     662.0234   -880.57082    72.350039    62.656972    36.096446   -422.94659    -311695.8 
    1350    368.00157    163636.65     72.35048    72.350481    36.096667          120    19138.815    16490.964    -37352.39    221.63188    882.31997   -634.71944     72.35048    62.657355    36.096667   -574.20342   -311691.92 
    1360    368.12402    163639.36     72.35088     72.35088    36.096866          120    19512.565    16780.117   -37056.821    843.31984     664.3659   -710.64769     72.35088      62.6577    36.096866   -254.71316   -311692.26 
    1370    367.19869     163641.9    72.351255    72.351256    36.097053          120    20401.348    17146.698   -37094.488    1018.0506    955.07651   -541.98064    72.351255    62.658025    36.097053    151.18598   -311689.77 
    1380    366.58942    163644.45     72.35163    72.351631     36.09724          120    19826.112    18113.257   -36740.318    674.79333    1128.4091   -248.33108     72.35163     62.65835     36.09724    399.68404   -311688.11 
    1390    367.57215    163647.06    72.352015    72.352016    36.097433          120    18636.001    17949.412   -36873.109     816.0588   -10.173366   -1077.0175    72.352015    62.658684    36.097433   -95.898289   -311689.01 
    1400    371.71497    163649.57    72.352384    72.352385    36.097617          120    18957.972    16496.999   -38010.722    678.56632     431.5017   -1990.6272    72.352384    62.659003    36.097617   -851.91727   -311695.76 
    1410    368.93642    163651.69    72.352698    72.352698    36.097773          120    19332.386    16149.124   -37950.325    887.91794    360.19067   -2002.7418    72.352698    62.659275    36.097773   -822.93866   -311689.75 
    1420    366.51106    163653.43    72.352953    72.352954    36.097901          120    19600.904    16753.494   -37857.751    884.38422    202.79061   -1420.5067    72.352953    62.659496    36.097901   -501.11747   -311683.73 
    1430    371.53062    163654.92    72.353173    72.353173     36.09801          120    19687.949    17311.854   -36767.891    628.72596     81.36587   -1489.9957    72.353173    62.659686     36.09801    77.304046   -311691.73 
    1440    369.80057    163656.39    72.353391    72.353391    36.098119          120    20809.685    17245.496   -36521.189    875.88641     231.2197   -1321.9865    72.353391    62.659875    36.098119    511.33058   -311686.21 
    1450    372.68757    163658.02    72.353631    72.353631    36.098238          120    20443.618    17297.357   -36839.708    612.28435   -241.56255   -1836.8922    72.353631    62.660083    36.098238    300.42243   -311689.85 
    1460    371.48367    163659.75    72.353885    72.353886    36.098365          120    19664.454    17354.124   -36824.118    146.65224    627.67801   -2145.4652    72.353885    62.660303    36.098365    64.820183   -311685.85 
    1470    372.86629    163661.45    72.354135    72.354136     36.09849          120    19562.334     16574.31   -37679.177   -101.45708    1054.2476   -1197.2195    72.354135     62.66052     36.09849   -514.17795    -311685.8 
    1480    371.20312     163662.9     72.35435    72.354351    36.098597          120    19746.571    16569.577   -38205.772    355.29163    489.69304   -860.19245     72.35435    62.660706    36.098597   -629.87499   -311680.33 
    1490    374.51896     163664.1    72.354527    72.354527    36.098685          120        20217    17772.077    -37280.66    1217.9227    414.04103    -1251.772    72.354527    62.660859    36.098685      236.139   -311684.16 
    1500    376.47788    163665.38    72.354715    72.354715    36.098779          120    20504.509    18455.708   -35358.548    1205.5552    279.54701   -2154.1746    72.354715    62.661022    36.098779    1200.5567   -311685.72 
    1510     373.2039    163667.07    72.354964    72.354965    36.098904          120    20592.436    18280.204    -35594.99    992.90724    708.12732     -2110.89    72.354964    62.661238    36.098904    1092.5498   -311677.38 
    1520    375.46707    163669.18    72.355275    72.355275    36.099059          120    20167.317    18417.566   -35624.261    801.08698    512.63794   -1875.8745    72.355275    62.661507    36.099059    986.87412   -311679.27 
    1530    375.23767    163671.63    72.355636    72.355637    36.099239          120     20873.56    18366.439    -37543.85   -85.323071    1037.3159   -1765.9603    72.355636     62.66182    36.099239    565.38266   -311676.39 
    1540    379.50626    163674.27    72.356025    72.356025    36.099433          120    20757.887    17753.262   -38294.217   -189.38816    107.93515   -1902.0139    72.356025    62.662156    36.099433    72.310742    -311682.2 
    1550    377.56658    163676.89    72.356411    72.356412    36.099626          120    20395.577    17478.412    -37784.09    675.06933   -219.57877   -1367.8973    72.356411    62.662491    36.099626    29.966245   -311676.06 
    1560    376.74101    163679.46     72.35679    72.356791    36.099815          120    20890.808    16747.706   -36937.278    636.20397   -43.025039   -964.59691     72.35679    62.662819    36.099815    233.74544   -311672.08 
    1570     377.9365    163682.09    72.357178    72.357178    36.100008          120    21346.268     17112.22   -36585.944    332.97356    521.00984   -420.25639    72.357178    62.663155    36.100008    624.18118   -311672.39 
    1580    377.11435    163684.84    72.357582    72.357583     36.10021          120    19916.399    16123.691   -37677.204    31.564885    318.25101   -394.91916    72.357582    62.663505     36.10021   -545.70453   -311669.21 
    1590    380.37789    163687.34     72.35795    72.357951    36.100393          120     18899.91    15654.681   -37692.897    349.69753    377.92189   -633.35969     72.35795    62.663824    36.100393   -1046.1021   -311673.68 
    1600    380.76824    163689.37     72.35825    72.358251    36.100543          120    19337.861    16364.099   -38307.667    639.18262    923.24509   -740.79653     72.35825    62.664083    36.100543   -868.56912   -311672.28 
    1610    378.99774    163691.03    72.358494    72.358494    36.100665          120    20005.531     16803.77   -37338.695     470.9723    669.72803   -1110.6239    72.358494    62.664295    36.100665   -176.46464   -311667.33 
    1620    377.58793    163692.56    72.358719     72.35872    36.100777          120    19714.246    16855.666   -35986.095    602.23444    776.45521   -1879.8531    72.358719     62.66449    36.100777    194.60578   -311663.41 
    1630    381.71692    163694.15    72.358954    72.358954    36.100894          120    20248.552    16854.315   -35143.949    883.49099    930.31072   -1971.1638    72.358954    62.664693    36.100894    652.97276    -311670.7 
    1640    381.92709    163695.91    72.359213    72.359213    36.101023          120    19142.906    16686.466   -36536.439    706.18005    547.97056   -1314.7635    72.359213    62.664917    36.101023   -235.68901   -311670.38 
    1650    381.14591    163697.57    72.359457    72.359458    36.101145          120    18402.042    16692.595   -37097.567    211.65302    19.239154    -1463.025    72.359457    62.665129    36.101145   -667.64326   -311668.28 
    1660    380.66277    163698.92    72.359657    72.359658    36.101245          120    18956.195    15951.215   -36869.203    578.36295   -130.30881   -1273.2088    72.359657    62.665302    36.101245   -653.93106   -311666.58 
    1670    379.77717    163699.99    72.359815    72.359815    36.101324          120    19529.862     16700.07   -35936.119     824.7434   -115.75306   -1230.6034    72.359815    62.665439    36.101324    97.937347   -311664.61 
    1680    381.62007    163701.08    72.359976    72.359976    36.101404          120    19514.103    18461.934   -35816.549    1088.0871     490.7772   -1069.7357    72.359976    62.665578    36.101404    719.82935    -311668.5 
    1690    379.28767     163702.4     72.36017    72.360171    36.101501          120    19346.671    18195.825   -36603.857    1035.1041    5.9658006   -678.58257     72.36017    62.665746    36.101501    312.87948   -311664.16 
    1700     383.2783    163703.83     72.36038    72.360381    36.101606          120    19532.424    17470.701   -36372.197    1228.3503    233.01077   -1455.7246     72.36038    62.665928    36.101606     210.3094   -311672.74 
    1710    379.43565    163705.32      72.3606      72.3606    36.101715          120    19315.309    17877.497   -35730.898    1033.6016    657.95814   -1536.9155      72.3606    62.666118    36.101715    487.30257   -311666.32 
    1720    378.98554    163706.96    72.360841    72.360842    36.101836          120    19770.684    17526.047   -36285.326    1386.2457   0.96850428   -928.93112    72.360841    62.666328    36.101836     337.1354    -311666.4 
    1730     380.9208     163708.7    72.361098    72.361098    36.101964          120    20453.218    16887.765   -36593.145    1395.0822    39.821285   -879.66793    72.361098     62.66655    36.101964    249.27958   -311670.64 
    1740    380.62274     163710.5    72.361364    72.361364    36.102097          120     20684.02    16140.818   -36642.024    1110.7992   -329.19521   -520.02449    72.361364     62.66678    36.102097    60.938068   -311672.15 
    1750    380.10285    163712.32    72.361632    72.361632     36.10223          120     20807.09    16333.204   -36730.269    1203.0936    -1153.328   -204.06229    72.361632    62.667012     36.10223    136.67506   -311672.49 
    1760    379.37652    163714.16    72.361902    72.361902    36.102365          120    19769.469    17515.241   -36985.361    1629.5131   -342.54947   -920.11499    72.361902    62.667246    36.102365    99.782885   -311672.58 
    1770    380.65954    163715.98     72.36217    72.362171    36.102499          120    19481.142    17616.048   -37020.659    1725.1521    917.42459    -1385.809     72.36217    62.667479    36.102499    25.510249   -311676.84 
    1780    376.87202    163717.81     72.36244    72.362441    36.102634          120     20875.54     17682.06   -36480.378    1380.4104    711.81668   -422.05887     72.36244    62.667712    36.102634    692.40743   -311671.53 
    1790    376.95002    163719.85    72.362741    72.362742    36.102784          120    21438.639    17398.161   -37372.829    845.86363    984.54463   -1302.4586    72.362741    62.667973    36.102784     487.9903   -311674.06 
    1800    376.48676    163722.07    72.363068    72.363068    36.102947          120    20847.303    17925.555   -37677.165    278.25861    417.06427    -1602.275    72.363068    62.668255    36.102947    365.23099   -311675.61 
    1810    380.36505    163724.39     72.36341     72.36341    36.103117          120    20273.179    17680.343   -37195.626    217.57012   -287.78685    -1236.545     72.36341    62.668552    36.103117    252.63222   -311686.17 
    1820    376.96916    163726.77     72.36376     72.36376    36.103292          120    19830.679    17197.477   -37191.498   -54.107834    52.921313   -544.80933     72.36376    62.668855    36.103292   -54.447505   -311681.78 
    1830    376.35942    163729.08    72.364101    72.364101    36.103462          120    19300.783    17598.711   -37323.799     824.0352    456.53265    -201.6203    72.364101     62.66915    36.103462   -141.43502   -311682.79 
    1840    376.63552    163731.31    72.364429    72.364429    36.103626          120    19818.575    17722.264   -36964.937    459.15166   -119.14394    -109.4542    72.364429    62.669434    36.103626    191.96735   -311685.65 
    1850    373.42348    163733.57    72.364762    72.364762    36.103792          120    19711.327    18241.593   -36447.108    671.07989   -199.17062   -719.11387    72.364762    62.669723    36.103792    501.93725      -311682 
    1860     375.8984    163735.96    72.365114    72.365114    36.103967          120    19510.526    17811.491   -36648.638    692.67443    71.921669   -859.55977    72.365114    62.670028    36.103967    224.45992   -311689.06 
    1870    370.14222    163738.39    72.365472    72.365473    36.104146          120    19547.111    17090.765   -36380.332    1048.6011    130.63102   -860.83971    72.365472    62.670338    36.104146    85.848038   -311679.88 
    1880    375.19924    163740.79    72.365825    72.365826    36.104322          120     19638.83    17026.937   -36682.725    890.78433   -512.42197   -1045.4133    72.365825    62.670644    36.104322   -5.6529148   -311692.44 
    1890    371.11873    163743.12    72.366169     72.36617    36.104494          120    20592.945    16303.955   -37664.055    1325.7804    -107.9113   -616.62374    72.366169    62.670942    36.104494   -255.71821   -311687.14 
    1900     371.9363    163745.32    72.366493    72.366493    36.104655          120     21074.37    14974.184   -37613.171    1237.0363    240.44325    323.50408    72.366493    62.671222    36.104655   -521.53919   -311689.91 
    1910    373.21521    163747.23    72.366775    72.366776    36.104796          120     20053.94    15108.056   -38107.918    1173.8087   -653.55421    96.912033    72.366775    62.671466    36.104796   -981.97392   -311694.67 
    1920    370.24915    163748.74    72.366997    72.366997    36.104907          120    19265.171     16578.21   -38151.407    1334.4012   -429.08076   -563.24139    72.366997    62.671658    36.104907   -769.34187   -311690.95 
    1930    370.32859     163749.9    72.367168    72.367169    36.104992          120    18583.762    17145.067   -36862.667    211.95123    673.66844   -156.94207    72.367168    62.671807    36.104992   -377.94611   -311693.05 
    1940    367.29164     163750.9    72.367314    72.367315    36.105065          120    19604.734    17094.061    -35948.84    146.34459    80.687993   -775.28395    72.367314    62.671933    36.105065    249.98513    -311688.8 
    1950    366.53903    163751.95     72.36747     72.36747    36.105143          120    20050.374    17033.613   -36438.035     125.6007    421.95462   -1038.6996     72.36747    62.672068    36.105143    215.31757   -311688.58 
    1960    370.77139    163753.04     72.36763    72.367631    36.105223          120    18656.092    17005.459   -37690.684    251.71006   -179.96698   -1039.0995     72.36763    62.672207    36.105223   -676.37753   -311697.97 
    1970     371.0631    163753.85     72.36775    72.367751    36.105283          120    18710.762    16803.845   -38763.879    241.77892    48.224634   -596.75835     72.36775    62.672311    36.105283   -1083.0904   -311699.77 
    1980     369.6867     163754.2    72.367801    72.367801    36.105308          120    18579.638    16129.585   -39545.053    137.89561    448.67158   -1453.3735    72.367801    62.672354    36.105308   -1611.9434   -311697.01 
    1990    368.73326     163753.9    72.367756    72.367757    36.105286          120    18075.333    16521.286   -38872.661    524.03211   -160.83723   -1828.8093    72.367756    62.672316    36.105286   -1425.3475   -311695.55 
    2000    370.03128    163753.03    72.367629    72.367629    36.105222          120    18561.603    16948.683   -37595.985    1303.0251    346.29309   -955.94449    72.367629    62.672206    36.105222   -695.23305   -311697.84 
    2010    366.57079    163751.89    72.367461    72.367461    36.105138          120    20180.667    16787.751   -37484.879    910.99249   -110.16692   -550.52345    72.367461     62.67206    36.105138   -172.15385   -311691.36 
    2020     367.6431     163750.7    72.367286    72.367286    36.105051          120    20171.555    17515.956   -37094.878     435.6709   -140.31703   -249.11821    72.367286    62.671909    36.105051     197.5443   -311693.32 
    2030    370.49204     163749.6    72.367123    72.367124     36.10497          120    19752.545    17389.345   -36677.191    356.21652    186.77683     23.67067    72.367123    62.671768     36.10497    154.89966    -311698.6 
    2040    370.00899    163748.59    72.366974    72.366975    36.104896          120     20341.21    16958.476   -36856.974    444.65904    397.34543    112.96637    72.366974    62.671639    36.104896    147.57061   -311696.81 
    2050    371.57769    163747.65    72.366836    72.366836    36.104827          120    20389.769    17421.075   -37312.171    803.09175    -148.3904   -276.04407    72.366836    62.671519    36.104827     166.2243   -311698.33 
    2060    368.52365    163746.81    72.366712    72.366713    36.104765          120    20134.006    18171.744   -36713.401    663.89527    185.81688    -227.7523    72.366712    62.671412    36.104765    530.78277   -311690.74 
    2070    370.50038    163746.18    72.366619     72.36662    36.104719          120    20547.405    17044.588   -36999.793    848.88259   -72.437597   -157.79581    72.366619    62.671331    36.104719    197.39991   -311693.33 
    2080    366.47751    163745.64    72.366541    72.366541    36.104679          120    19705.276    16658.612   -37325.163    638.43261    8.7425778   -130.54968    72.366541    62.671263    36.104679   -320.42509   -311683.83 
    2090    371.47132    163744.99    72.366445    72.366446    36.104632          120    19334.073    16587.026   -37307.019    700.60082   -162.01486   -39.237261    72.366445     62.67118    36.104632   -461.97303   -311691.77 
    2100    376.48405    163744.17    72.366324    72.366324    36.104571          120    19266.987    16420.966   -36976.836     715.7841    591.01991   -23.004083    72.366324    62.671075    36.104571   -429.62755    -311699.5 
    2110    372.52107    163743.21    72.366182    72.366183      36.1045          120    19685.242    17026.368   -36914.749    698.87558    833.96758    345.83524    72.366182    62.670953      36.1045    -67.71305   -311689.96 
    2120    376.62372    163742.26    72.366043    72.366043    36.104431          120    20540.073    17451.241   -35936.211     511.2388     342.0955    483.44102    72.366043    62.670832    36.104431    685.03463   -311695.95 
    2130    373.31823    163741.59    72.365943    72.365944    36.104381          120    20441.652    17373.869   -35691.767    181.88704    35.169889    -603.8998    72.365943    62.670746    36.104381    707.91844   -311687.27 
    2140    371.49289    163741.21    72.365888    72.365889    36.104354          120     20667.19    16828.956    -36925.97    486.50031   -15.745647   -952.49313    72.365888    62.670698    36.104354    190.05841   -311681.77 
    2150    377.79871    163740.94    72.365847    72.365848    36.104334          120    20175.443    17218.835   -37318.856    479.91358    258.48193   -571.88215    72.365847    62.670663    36.104334    25.141037   -311691.94 
    2160     375.3376    163740.68    72.365809     72.36581    36.104314          120    20264.925    17646.176   -37102.566    321.02895   -427.27049   -399.72431    72.365809     62.67063    36.104314    269.51153   -311685.07 
    2170    373.89611    163740.52    72.365787    72.365787    36.104303          120    20329.739    17872.435   -36928.808    11.837684   -402.84659   -342.05143    72.365787     62.67061    36.104303    424.45514   -311679.49 
    2180    380.61894    163740.53    72.365788    72.365788    36.104304          120    19784.677    18122.433   -37237.331    498.31761   -1157.8693   -792.73571    72.365788    62.670611    36.104304    223.25966    -311690.5 
    2190    379.13539    163740.63    72.365802    72.365803    36.104311          120    19670.465    17269.871   -37065.821     935.1845   -685.57352   -609.30574    72.365802    62.670624    36.104311   -41.828278    -311685.9 
    2200    375.21728    163740.76    72.365821    72.365821     36.10432          120    20761.828    17024.296   -36792.196    1213.9565    342.36015   -213.16658    72.365821     62.67064     36.10432    331.30948   -311676.25 
    2210    379.61157       163741    72.365856    72.365857    36.104338          120    20251.133    17707.236    -36388.05    979.30955    324.89855   -97.196171    72.365856     62.67067    36.104338    523.43961   -311682.52 
    2220    378.40712    163741.42    72.365918    72.365919    36.104369          120     19532.38    18381.687   -37456.662    1353.0735   -584.85147   -542.34577    72.365918    62.670724    36.104369    152.46827   -311678.48 
    2230    378.58295    163741.92    72.365992    72.365992    36.104406          120    19482.467     17754.61    -37700.34    1344.1334    -1602.634   -690.89942    72.365992    62.670788    36.104406   -154.42098   -311678.47 
    2240    377.39978    163742.36    72.366057    72.366057    36.104438          120    19683.248    17272.247    -37448.19    1189.5011   -451.80341   -205.13867    72.366057    62.670844    36.104438   -164.23155   -311674.97 
    2250    378.97987    163742.71    72.366108    72.366109    36.104464          120    19551.413    17238.248   -37923.991    1211.0384   -375.71114   -474.71191    72.366108    62.670889    36.104464      -378.11   -311676.86 
    2260    378.77464    163742.93    72.366141    72.366142     36.10448          120    20337.407    16892.721   -37299.901     629.1757   -89.813086     47.30949    72.366141    62.670917     36.10448    -23.25768    -311675.3 
[...]
    9200    374.16417    163868.59    72.384648    72.384648    36.113713          120     20480.61     16215.55   -36985.472    1124.9851    50.297419   -198.14861    72.384648    62.686944    36.113713   -96.437583   -311708.08 
    9210    378.74824    163866.55    72.384347    72.384348    36.113563          120      20512.1    16172.716   -36953.546    1184.7281   -1287.3434   -404.88882    72.384347    62.686684    36.113563   -89.576789   -311716.25 
    9220    377.60181    163864.51    72.384047    72.384047    36.113413          120    20370.241    16145.295   -36226.505    1869.4927   -1861.7147    315.33769    72.384047    62.686424    36.113413    96.343812   -311713.08 
    9230    376.88683    163862.48    72.383748    72.383749    36.113264          120    20283.163    15596.817   -37139.311    1846.1949   -1019.0272   -357.16424    72.383748    62.686165    36.113264   -419.77698   -311711.25 
    9240    380.29175    163860.33    72.383432    72.383432    36.113107          120    20408.189    16035.996   -36898.596    1330.8311    292.76708   -363.16413    72.383432    62.685891    36.113107   -151.47039   -311717.76 
    9250    376.53557    163858.16    72.383112    72.383113    36.112947          120    20850.706    16209.979   -35623.628    1517.3004    219.62416    -303.6091    72.383112    62.685615    36.112947      479.019   -311710.43 
    9260    379.48906    163856.19    72.382823    72.382823    36.112803          120    20782.329    16129.545   -35103.618      607.299    1189.2118   -211.12016    72.382823    62.685364    36.112803     602.7522    -311716.5 
    9270     377.6725    163854.51    72.382575    72.382575    36.112679          120    20435.013    16334.225   -35077.501    481.17738    1022.7817   -768.50837    72.382575    62.685149    36.112679     563.9123   -311713.18 
    9280    376.64174    163853.07    72.382362    72.382363    36.112573          120    20408.595    16329.423   -36149.549    1804.1115    34.859981   -809.77724    72.382362    62.684965    36.112573    196.15656   -311711.57 
    9290    376.37979    163851.74    72.382167    72.382168    36.112476          120    21134.631    16675.597   -36156.448    1371.7546    692.94134   -776.43803    72.382167    62.684796    36.112476    551.26034   -311711.27 
    9300    376.16311    163850.64    72.382005    72.382005    36.112395          120    20802.432    17400.873   -36633.224    556.45895    167.06334   -555.47288    72.382005    62.684656    36.112395    523.36019   -311710.48 
    9310    375.98682    163849.77    72.381876    72.381877    36.112331          120    21758.478     17369.35   -37599.907    782.98089   -685.31595   -227.22529    72.381876    62.684544    36.112331    509.30694   -311710.64 
    9320    379.14735    163849.14    72.381784    72.381785    36.112285          120    21946.744    17536.723    -37225.69    1112.9846   -371.22666   -65.742127    72.381784    62.684465    36.112285    752.59199   -311717.76 
    9330    379.16967    163848.82    72.381736    72.381737    36.112261          120    21463.288    16996.996   -36716.226    722.80078    3.4923711    246.95586    72.381736    62.684423    36.112261    581.35263   -311717.77 
    9340    375.22128    163848.72    72.381722    72.381723    36.112254          120    20646.186    16470.609    -36506.76    769.72249    808.45227    489.87986    72.381722    62.684411    36.112254    203.34508   -311710.28 
    9350     374.0784    163848.74    72.381724    72.381725    36.112255          120    20392.926     17087.57   -35515.548    730.98726    1235.9342    395.09415    72.381724    62.684413    36.112255    654.98234   -311708.71 
    9360    377.40027    163849.04    72.381769     72.38177    36.112277          120    21537.399    17176.652   -34436.294    561.03511    363.70875    -420.1221    72.381769    62.684451    36.112277    1425.9188   -311716.39 
    9370     375.2736     163849.9    72.381897    72.381897    36.112341          120    21833.743    17173.414   -34656.202    551.92896   -325.12375   -678.02815    72.381897    62.684562    36.112341    1450.3183   -311713.33 
    9380    375.72646    163851.36    72.382111    72.382112    36.112448          120    21100.256    17871.481   -34871.252    816.90851    262.50776   -636.23602    72.382111    62.684748    36.112448    1366.8283   -311715.06 
    9390    376.57012    163853.34    72.382403    72.382404    36.112593          120    20447.218     17807.45   -36492.219    263.03831    356.33801   -276.27768    72.382403       62.685    36.112593    587.48309   -311717.88 
    9400    378.51177    163855.54    72.382727    72.382728    36.112755          120    20285.303    16715.385   -37092.321    84.752581    200.37235   -331.39707    72.382727    62.685281    36.112755   -30.544322   -311722.79 
    9410    374.15136    163857.73    72.383048    72.383049    36.112915          120    20543.221    16731.921   -37674.756    419.18706   -241.86971   -572.52124    72.383048    62.685559    36.112915   -133.20487    -311715.3 
    9420    378.01354    163859.86    72.383363    72.383363    36.113072          120    21563.274    16957.438   -37026.976    254.94961    292.59129   -285.74451    72.383363    62.685832    36.113072    497.91198   -311723.79 
    9430    372.50053    163862.16    72.383701    72.383701    36.113241          120    21639.983    16228.353   -35843.238     898.6898    841.63154   -329.18667    72.383701    62.686124    36.113241    675.03286   -311714.36 
    9440    372.32612    163864.73     72.38408     72.38408     36.11343          120    21069.971    16645.869    -34817.53    1031.2689    438.31946   -177.05109     72.38408    62.686452     36.11343    966.10369   -311715.64 
    9450    371.94836    163867.68    72.384514    72.384515    36.113647          120    21000.482    17339.493   -34377.068    975.89573    531.41123   -689.82096    72.384514    62.686829    36.113647    1320.9691   -311715.98 
    9460    375.10212    163871.12    72.385021    72.385021    36.113899          120    20441.289    17142.272   -35016.871    903.65315    1044.0985   -723.75525    72.385021    62.687267    36.113899    855.56336    -311722.6 
    9470     375.8636    163874.89    72.385575    72.385576    36.114176          120    20319.399    16557.555   -36444.127    672.26909    745.41358   -851.43552    72.385575    62.687748    36.114176     144.2758   -311724.83 
    9480     371.1853    163878.68    72.386133    72.386134    36.114454          120    19972.646    16297.541   -37724.932    1241.3701    924.66626   -591.77813    72.386133    62.688231    36.114454   -484.91488   -311716.68 
    9490    373.25057    163882.25    72.386659     72.38666    36.114717          120    19449.555    16541.422   -37215.314    895.73771    293.02734    130.20237    72.386659    62.688686    36.114717    -408.1125   -311721.28 
    9500    373.24333    163885.62    72.387156    72.387157    36.114965          120    19651.104    16513.818   -36958.287    733.01214    496.46007   -25.510753    72.387156    62.689117    36.114965   -264.45535    -311721.8 
    9510    372.81723    163888.87    72.387634    72.387634    36.115203          120    19219.729    16441.009   -35972.576     614.7084   -559.55428   -1.9409892    72.387634    62.689531    36.115203   -103.94619    -311721.3 
    9520    374.47702    163892.03    72.388099      72.3881    36.115435          120    19348.078    16151.529   -36712.196    863.36843   -760.86311    314.64423    72.388099    62.689933    36.115435   -404.19635   -311724.64 
    9530    371.78151    163895.01    72.388538    72.388538    36.115654          120    19236.769    15541.492   -36026.864    1468.6814     382.3824    490.92056    72.388538    62.690313    36.115654     -416.201   -311720.25 
    9540    374.77396    163897.77    72.388945    72.388945    36.115857          120    19467.124    15264.979   -36340.665    1023.4494    460.76767   -51.851789    72.388945    62.690666    36.115857   -536.18722   -311726.41 
    9550    371.64425    163900.29    72.389316    72.389316    36.116042          120     20003.55    15334.139   -36995.547     1099.484    587.36536   -742.07867    72.389316    62.690987    36.116042   -552.61923   -311720.25 
    9560    372.61984    163902.54    72.389646    72.389647    36.116207          120    19782.601    15473.988   -37681.731    1982.6595    1171.2748   -639.71139    72.389646    62.691273    36.116207   -808.38066   -311722.61 
    9570    372.01819    163904.43    72.389924    72.389925    36.116346          120    19361.245    14960.716   -37066.615    1620.7097    1217.4387     218.0104    72.389924    62.691514    36.116346   -914.88426    -311721.4 
    9580    373.81846    163905.95    72.390149    72.390149    36.116458          120    20296.272     15783.75   -36755.491    1349.8317    1134.2256   -61.423984    72.390149    62.691708    36.116458   -225.15637   -311724.49 
    9590    370.44535    163907.32     72.39035    72.390351    36.116558          120    20007.934    15752.875   -36911.033    1499.9963    494.73499   -663.45422     72.39035    62.691883    36.116558   -383.40804   -311717.82 
    9600    373.93234    163908.52    72.390526    72.390527    36.116646          120    20196.663    15182.012   -36792.001    1404.5143    17.324213   -294.32366    72.390526    62.692035    36.116646   -471.10845   -311724.98 
    9610    371.62994    163909.52    72.390675    72.390675     36.11672          120    20385.937    15438.614   -36438.161    333.12481    593.88499    33.952511    72.390675    62.692164     36.11672   -204.53687   -311720.39 
    9620    372.73184    163910.43    72.390807    72.390808    36.116786          120    20196.553    15562.841   -36119.997    746.33943    -23.18071    1029.7255    72.390807    62.692279    36.116786   -120.20107   -311721.63 
    9630    372.53838    163911.25    72.390929     72.39093    36.116847          120    20821.457     15630.72   -37358.309    1527.9917    303.16161    1183.7747    72.390929    62.692384    36.116847   -302.04401   -311721.02 
    9640    377.79171    163911.94     72.39103    72.391031    36.116898          120    19811.473    15499.621   -37009.775    1351.9809    61.284144    410.59557     72.39103    62.692472    36.116898   -566.22681   -311731.05 
    9650    372.25253     163912.4    72.391098    72.391099    36.116932          120    19487.437    16839.457   -37168.231    1257.4146   -58.955869   -415.79766    72.391098    62.692531    36.116932   -280.44576   -311720.15 
    9660    370.99752    163912.76    72.391151    72.391152    36.116958          120    20549.384    17038.608    -36494.39    1246.5129      461.119   -642.47823    72.391151    62.692577    36.116958    364.53401   -311716.85 
    9670    370.87358    163913.27    72.391225    72.391226    36.116995          120    20911.221     16787.53   -36132.171    1341.3239    563.24752   -1218.4226    72.391225    62.692641    36.116995    522.19329   -311715.73 
    9680    374.05446    163913.95    72.391326    72.391327    36.117045          120    20368.063    16280.493   -37264.763    682.02803    865.33225   -498.19831    72.391326    62.692728    36.117045   -205.40269   -311721.14 
    9690    374.95179    163914.56    72.391415    72.391416     36.11709          120    20593.161    15939.201   -38064.737    1266.7625    912.74216   -369.77772    72.391415    62.692805     36.11709   -510.79165    -311721.5 
    9700    372.69493    163914.92     72.39147     72.39147    36.117117          120    20213.291    15638.176   -38889.426    929.95288    817.50338   -59.249332     72.39147    62.692852    36.117117   -1012.6531   -311715.67 
    9710     378.6801     163914.9    72.391466    72.391467    36.117115          120    19862.365    15762.141   -37711.592    906.04182   -208.76206   -212.48851    72.391466    62.692849    36.117115    -695.6953   -311726.62 
    9720    375.59956    163914.61    72.391424    72.391425    36.117094          120    20193.773    16777.682   -36570.387    1071.4333   -387.17553   -457.03339    72.391424    62.692813    36.117094    133.68948   -311720.28 
    9730    375.74308    163914.39    72.391392    72.391392    36.117078          120    21183.245    17508.109   -35733.971    667.45655    206.81851    628.14641    72.391392    62.692785    36.117078    985.79413   -311719.09 
    9740    376.63342    163914.54    72.391413    72.391414    36.117089          120    20425.576     17209.93   -35666.377    1144.3661    819.67589    1.4731548    72.391413    62.692803    36.117089    656.37628   -311720.44 
    9750    375.04988    163914.95    72.391473    72.391474    36.117119          120     20027.21    16179.256   -36151.439    1190.2508    114.97815    595.93349    72.391473    62.692856    36.117119    18.342084    -311716.6 
    9760    374.51465    163915.36    72.391534    72.391535    36.117149          120    20526.037    15173.824   -36221.233    794.56508   -10.994501    576.00177    72.391534    62.692908    36.117149   -173.79055   -311714.83 
    9770    374.75121    163915.71    72.391585    72.391585    36.117174          120    20565.686    16039.738   -36836.887    718.73807   -598.52687   -95.093508    72.391585    62.692952    36.117174   -77.154384   -311714.34 
    9780     374.2912    163916.03    72.391633    72.391634    36.117198          120    20952.585    17224.993   -36673.802    1077.8495   -225.57492   -584.88257    72.391633    62.692994    36.117198    501.25875   -311712.29 
    9790    376.46888    163916.53    72.391706    72.391707    36.117235          120    20587.998    16803.836   -35992.603    1587.4071   -494.62801   -1164.0337    72.391706    62.693057    36.117235    466.41018   -311715.86 
    9800    376.90029    163917.24     72.39181    72.391811    36.117287          120     21279.18    16951.274   -36335.378    1412.2738    42.714607   -319.01366     72.39181    62.693147    36.117287    631.69199   -311716.22 
    9810    376.36659    163918.21    72.391954    72.391955    36.117358          120    21087.066    17861.192   -36390.936    865.67034    131.62439   -425.77898    72.391954    62.693272    36.117358    852.44047   -311714.18 
    9820    376.34464    163919.56    72.392152    72.392152    36.117457          120    21561.114     17585.85   -35696.096    730.45382    144.49344   -349.34327    72.392152    62.693443    36.117457    1150.2892   -311713.48 
    9830     380.3304    163921.36    72.392417    72.392417    36.117589          120    21232.792    17997.676   -35783.336    687.51837    505.41281   -87.528454    72.392417    62.693672    36.117589    1149.0442    -311720.4 
    9840    375.36974    163923.62     72.39275    72.392751    36.117756          120    20677.476    18160.067   -35680.617    752.45905    787.39985   -822.20033     72.39275    62.693961    36.117756    1052.3088   -311710.63 
    9850     375.3778    163926.28    72.393142    72.393142    36.117951          120    20738.189    16709.595   -35887.542    782.65182    910.21795   -1112.7564    72.393142      62.6943    36.117951    520.08057   -311710.39 
    9860    375.77382    163929.13     72.39356    72.393561     36.11816          120    19672.751     16952.88   -36520.041    852.90632    -508.4522   -273.10782     72.39356    62.694663     36.11816    35.196649   -311710.89 
    9870    379.03936    163931.96    72.393978    72.393979    36.118368          120    19176.937    17128.117   -36826.125    979.27371    405.98864    147.77929    72.393978    62.695025    36.118368    -173.6905   -311717.57 
    9880    377.02062    163934.71    72.394382    72.394383     36.11857          120    20036.363    16465.293   -37215.059    555.88604    854.85351    608.30139    72.394382    62.695375     36.11857   -237.80115   -311714.04 
    9890    376.31829    163937.33    72.394768    72.394768    36.118762          120    20523.899    16521.425   -37384.165    353.35893    224.63062    98.701329    72.394768    62.695709    36.118762   -112.94741   -311712.19 
    9900    377.11047     163939.9    72.395147    72.395147    36.118951          120    21357.686    16444.268   -36010.635    355.13094    645.57563    152.23168    72.395147    62.696037    36.118951     597.1062   -311713.56 
    9910    376.30844    163942.65    72.395551    72.395551    36.119153          120    21315.451    15504.864    -36381.92    643.64168    591.71852   -500.68077    72.395551    62.696387    36.119153    146.13164    -311711.7 
    9920    378.36328    163945.41    72.395958    72.395959    36.119356          120    21041.175     15479.46    -37792.28    970.02781   -87.866243   -23.912322    72.395958    62.696739    36.119356    -423.8817   -311716.15 
    9930    376.19223    163947.99    72.396338    72.396338    36.119546          120    20212.234    15979.894   -37655.705     1492.377   -530.04772    241.92658    72.396338    62.697068    36.119546   -487.85887   -311712.27 
    9940    376.58736    163950.34    72.396683    72.396683    36.119718          120    19733.991    15800.965   -37128.029    1133.9759   -960.95577   -836.67406    72.396683    62.697367    36.119718   -531.02426   -311713.41 
    9950    377.74883    163952.42    72.396989    72.396989     36.11987          120      19674.3    15368.182   -37600.286    675.05722    204.63694    -826.3684    72.396989    62.697632     36.11987    -852.6011   -311715.55 
    9960    379.31157    163954.13    72.397241    72.397242    36.119996          120    20223.171    15253.565    -38308.66    930.79584    427.94858    179.92129    72.397241    62.697851    36.119996   -943.97484   -311719.03 
    9970    376.71857    163955.48     72.39744     72.39744    36.120095          120    21049.235    15156.439   -36569.478    1008.1165    1055.0055    97.592783     72.39744    62.698023    36.120095   -121.26805   -311714.51 
    9980    377.45379    163956.74    72.397626    72.397626    36.120188          120    20521.933    15707.376   -35554.328    1032.4929    1084.2317     -19.0758    72.397626    62.698184    36.120188     224.9937   -311717.04 
    9990    375.34502    163958.07     72.39782    72.397821    36.120285          120    19778.215    16187.694   -36508.152    965.28262    636.15137    424.75205     72.39782    62.698352    36.120285   -180.74751   -311713.69 
   10000    375.80144    163959.31    72.398004    72.398004    36.120377          120    19655.042    15940.276    -36715.24    810.62245    1168.1987   -349.57612    72.398004    62.698511    36.120377   -373.30732   -311715.34 
Loop time of 2974.95 on 1 procs for 10000 steps with 14848 atoms

Performance: 0.290 ns/day, 82.638 hours/ns, 3.361 timesteps/s
99.9% CPU use with 1 MPI tasks x no OpenMP threads

MPI task timing breakdown:
Section |  min time  |  avg time  |  max time  |%varavg| %total
---------------------------------------------------------------
Pair    | 2393.6     | 2393.6     | 2393.6     |   0.0 | 80.46
Bond    | 0.0027101  | 0.0027101  | 0.0027101  |   0.0 |  0.00
Kspace  | 109.37     | 109.37     | 109.37     |   0.0 |  3.68
Neigh   | 404.86     | 404.86     | 404.86     |   0.0 | 13.61
Comm    | 4.295      | 4.295      | 4.295      |   0.0 |  0.14
Output  | 0.10534    | 0.10534    | 0.10534    |   0.0 |  0.00
Modify  | 61.603     | 61.603     | 61.603     |   0.0 |  2.07
Other   |            | 1.074      |            |       |  0.04

Nlocal:    14848 ave 14848 max 14848 min
Histogram: 1 0 0 0 0 0 0 0 0 0
Nghost:    46690 ave 46690 max 46690 min
Histogram: 1 0 0 0 0 0 0 0 0 0
Neighs:    1.00364e+07 ave 1.00364e+07 max 1.00364e+07 min
Histogram: 1 0 0 0 0 0 0 0 0 0

Total # of neighbors = 10036410
Ave neighs/atom = 675.944
Ave special neighs/atom = 0
Neighbor list builds = 1472
Dangerous builds = 0
 
All done!
Total wall time: 0:54:41
