LAMMPS (16 Mar 2018)
Reading data file ...
  triclinic box = (0 0 0) to (9.208 7.97436 18.376) with tilt (-4.604 0 0)
  1 by 1 by 1 MPI processor grid
  reading atoms ...
  116 atoms
Finding 1-2 1-3 1-4 neighbors ...
  special bond factors lj:   0          0          0         
  special bond factors coul: 0          0          0         
  0 = max # of 1-2 neighbors
  0 = max # of 1-3 neighbors
  0 = max # of 1-4 neighbors
  1 = max # of special neighbors
Replicating atoms ...
  triclinic box = (0 0 0) to (73.664 63.7949 36.752) with tilt (-36.832 0 0)
  1 by 1 by 1 MPI processor grid
  14848 atoms
Finding 1-2 1-3 1-4 neighbors ...
  special bond factors lj:   0          0          0         
  special bond factors coul: 0          0          0         
  0 = max # of 1-2 neighbors
  0 = max # of 1-3 neighbors
  0 = max # of 1-4 neighbors
  1 = max # of special neighbors
  Time spent = 0.00301719 secs
PPPM initialization ...
WARNING: System is not charge neutral, net charge = -0.2048 (../kspace.cpp:302)
  using 12-bit tables for long-range coulomb (../kspace.cpp:321)
  G vector (1/distance) = 0.201681
  grid = 36 50 24
  stencil order = 5
  estimated absolute RMS force accuracy = 0.00105653
  estimated relative force accuracy = 7.33721e-05
  using double precision FFTs
  3d grid and FFT values/proc = 65395 43200
Neighbor list info ...
  update every 1 steps, delay 0 steps, check yes
  max neighbors/atom: 2000, page size: 100000
  master list distance cutoff = 15.3
  ghost atom cutoff = 15.3
  binsize = 7.65, bins = 15 9 5
  3 neighbor lists, perpetual/occasional/extra = 3 0 0
  (1) pair morse, perpetual
      attributes: half, newton on
      pair build: half/bin/newton/tri
      stencil: half/bin/3d/newton/tri
      bin: standard
  (2) pair buck, perpetual, copy from (1)
      attributes: half, newton on
      pair build: copy
      stencil: none
      bin: none
  (3) pair lj/cut/coul/long, perpetual, copy from (1)
      attributes: half, newton on
      pair build: copy
      stencil: none
      bin: none
Setting up Verlet run ...
  Unit style    : metal
  Current step  : 0
  Time step     : 0.001
Per MPI rank memory allocation (min/avg/max) = 145.7 | 145.7 | 145.7 Mbytes
Step Temp Volume Cella Cellb Cellc CellGamma Pxx Pyy Pzz Pxy Pxz Pyz Lx Ly Lz Press PotEng 
       0          125    172711.88       73.664    73.664001       36.752          120   -210032.46   -210048.14   -281034.45    11.141953   -3.1820632    4.2499518       73.664    63.794896       36.752   -233705.01   -309191.56 
      10    276.51632    172549.16    73.640859    73.640859    36.740455          120   -213399.66   -213478.39   -260836.83    81.053573   -8.9345322   -120.90374    73.640859    63.774855    36.740455    -229238.3   -309534.36 
      20    525.63993    172073.17    73.573082    73.573082     36.70664          120   -212482.46   -212148.54   -201300.44    20.721407   -186.36082   -254.37979    73.573082    63.716159     36.70664   -208643.81   -310100.44 
      30    486.69843    171345.27    73.469193    73.469194    36.654808          120   -191159.82   -190661.22   -119357.66   -201.99588   -651.10354    -325.0927    73.469193    63.626188    36.654808   -167059.56    -310144.1 
      40     257.4689    170503.37    73.348666    73.348667    36.594675          120   -154516.14   -154344.55   -40244.144   -426.70332   -1060.0031   -380.65794    73.348666    63.521809    36.594675   -116368.28   -309799.71 
      50    330.01508    169709.16    73.234602    73.234602    36.537767          120   -113564.13    -113658.3   -3640.2105   -518.35109   -1141.6308   -556.50899    73.234602    63.423026    36.537767   -76954.214   -309993.72 
      60    654.82617    169047.02    73.139233    73.139234    36.490186          120   -80572.365   -80458.153   -36470.994    -576.6769    -2072.226   -437.41273    73.139233    63.340435    36.490186   -65833.838   -310671.47 
      70    853.25377    168500.32    73.060303    73.060304    36.450807          120   -54205.157   -53750.334   -97998.356   -1173.6349   -2474.0181   -289.24192    73.060303    63.272079    36.450807   -68651.282   -311146.75 
      80    703.13053    168017.58    72.990466    72.990466    36.415964          120   -34931.506   -35106.633   -140395.86   -1653.4859   -2979.0917    185.71154    72.990466    63.211598    36.415964   -70144.666   -310953.57 
      90    426.95736    167560.64    72.924238    72.924238    36.382922          120   -25165.745   -25576.662   -153866.61   -1842.1828    -3581.674    348.44567    72.924238    63.154243    36.382922   -68203.006   -310492.82 
     100    458.87772    167113.68    72.859339     72.85934    36.350543          120   -9724.3022   -9523.0765   -133293.41   -1680.9247   -3344.0528   -121.32355    72.859339    63.098039    36.350543   -50846.929   -310606.57 
     110    627.68445    166687.79    72.797393    72.797394    36.319638          120    8849.9786    9116.3807   -89771.976   -1752.9417   -2860.0215    -232.9143    72.797393    63.044392    36.319638   -23935.205   -310995.13 
     120    606.05036    166307.29    72.741958    72.741959     36.29198          120    18316.638    18527.712   -37651.571   -1743.0467   -2673.5354   -807.17598    72.741958    62.996384     36.29198   -269.07333    -311025.8 
     130    495.34722    165989.99    72.695668    72.695668    36.268886          120    15220.539    16141.382     2654.996    -1827.629    -2656.449   -734.55899    72.695668    62.956296    36.268886    11338.972    -310871.7 
     140    462.62973    165737.51    72.658791    72.658792    36.250487          120    9666.0268    9868.3878    12847.692    -1509.132   -2684.4387   -637.88225    72.658791     62.92436    36.250487    10794.035   -310855.26 
     150    527.87628    165536.75    72.629442    72.629442    36.235844          120    2714.9621    3386.2282   -14069.141   -1696.2656   -2317.7909   -200.69587    72.629442    62.898942    36.235844   -2655.9837   -311031.72 
     160     577.4038    165362.88    72.604004    72.604005    36.223153          120   -7612.9316    -5936.089   -53186.576   -1555.2505     -2399.89   -80.169307    72.604004    62.876913    36.223153   -22245.199   -311191.02 
     170    532.73308    165189.07    72.578558    72.578558    36.210458          120   -12454.781   -10305.261   -82247.974    -720.8444   -2901.0576   -332.15368    72.578558    62.854876    36.210458   -35002.672   -311173.42 
     180    453.25916    165000.07    72.550866    72.550867    36.196642          120   -8138.1464   -6042.5455   -96572.774    -476.8356   -2868.5473   -350.26361    72.550866    62.830894    36.196642   -36917.822   -311079.65 
     190    443.90473    164795.39    72.520854    72.520855    36.181669          120   -2066.2039   -137.31541   -90338.076    82.072675   -2441.1757   -216.65266    72.520854    62.804903    36.181669   -30847.198   -311112.81 
     200    481.71438     164584.2    72.489862    72.489863    36.166206          120    1960.2058    3922.6494   -68046.736   -300.09313   -2391.2819   -155.83491    72.489862    62.778063    36.166206   -20721.294   -311239.23 
     210    475.86267    164379.28    72.459765    72.459766     36.15119          120    5617.6903    7898.3857   -42717.972   -717.70186   -2701.2468    92.735772    72.459765    62.751998     36.15119   -9733.9652   -311284.02 
     220    436.81049    164192.32    72.432283    72.432283    36.137479          120    8935.3209    10147.765   -24928.282   -246.73513   -2688.0292   -176.99002    72.432283    62.728198    36.137479   -1948.3989    -311260.3 
     230    419.35786     164029.3    72.408304    72.408304    36.125516          120    9543.2912    9619.6556   -21505.878    27.668659   -2759.4928   -840.18805    72.408304    62.707431    36.125516   -780.97703   -311273.19 
     240     431.4712    163887.83    72.387481    72.387482    36.115127          120    7119.3594    6538.7092   -31002.506   -53.495369   -2823.1251   -956.45033    72.387481    62.689398    36.115127   -5781.4793   -311342.39 
     250    440.42727    163758.98    72.368505    72.368505    36.105659          120    4896.6221    3852.5119   -47369.981   -163.76573   -2681.1222   -1268.9895    72.368505    62.672964    36.105659   -12873.616   -311408.64 
     260    421.04917    163632.83    72.349918    72.349919    36.096386          120    5556.1331    4025.8722   -62098.413    -228.8751   -2365.3474   -930.68936    72.349918    62.656868    36.096386   -17505.469   -311420.73 
     270    391.97709    163503.39    72.330836    72.330837    36.086866          120    6751.4341    5556.2161   -68310.523   -836.56987    -1754.578   -361.98747    72.330836    62.640342    36.086866   -18667.624   -311410.67 
     280    380.91425    163369.61    72.311104    72.311104    36.077021          120    8328.6784    8405.9307   -63432.251   -688.13653    -1323.765    25.600649    72.311104    62.623253    36.077021   -15565.881   -311431.94 
     290    385.39991    163235.54    72.291316    72.291317    36.067149          120    11749.546    13162.899    -50442.96   -812.48769   -1366.6795     894.2147    72.291316    62.606117    36.067149   -8510.1718   -311482.69 
     300    381.40331    163108.86    72.272611    72.272612    36.057817          120    15163.173    16642.197   -35520.123   -656.14692   -1422.3183    619.88815    72.272611    62.589918    36.057817   -1238.2511   -311516.28 
     310    365.36442    162996.56     72.25602    72.256021    36.049539          120    15484.709    17497.084   -24235.069     91.86629   -2249.1834      341.888     72.25602     62.57555    36.049539    2915.5746    -311525.6 
     320    355.84907    162901.28    72.241939     72.24194    36.042514          120    14172.212      15672.3   -20669.874   -68.041306   -2759.6599    15.528368    72.241939    62.563355    36.042514    3058.2126   -311545.68 
     330    351.75774    162820.96    72.230063    72.230064    36.036589          120    12426.569    14027.096   -24629.845   -401.45952   -2397.7002    -405.2315    72.230063     62.55307    36.036589    607.93981   -311574.34 
     340    349.88393    162750.72    72.219676    72.219677    36.031407          120     11609.54        13111   -35189.978   -568.21873   -2012.5394   -709.14351    72.219676    62.544075    36.031407   -3489.8126   -311606.57 
     350    338.41269    162684.69    72.209908    72.209908    36.026533          120    11970.271    13122.695   -45056.297   -802.70218    -1309.277   -1306.3463    72.209908    62.535615    36.026533   -6654.4436   -311620.06 
     360    321.50434    162618.69    72.200142    72.200142    36.021661          120    12942.369    14375.804   -48866.775   -1243.7206   -1164.3855   -1735.0723    72.200142    62.527158    36.021661   -7182.8673   -311621.23 
     370    311.11469    162551.99    72.190268    72.190269    36.016735          120    14826.622    16470.438   -46953.086   -1370.8984    -1774.335   -1730.2004    72.190268    62.518607    36.016735   -5218.6757   -311632.85 
     380    310.41415    162486.67    72.180598    72.180599     36.01191          120    16962.124    17706.279   -40598.453   -997.14252   -1351.2629   -1014.1218    72.180598    62.510233     36.01191   -1976.6834   -311662.17 
     390    308.54531    162426.24    72.171649    72.171649    36.007445          120     17998.35    18852.768   -31083.177   -895.11093   -1121.9706   -890.62379    72.171649    62.502482    36.007445    1922.6468   -311689.12 
     400    297.61202    162374.38    72.163966    72.163966    36.003612          120     18572.18    19107.689   -24386.054   -674.37718   -1601.5995   -738.78667    72.163966    62.495828    36.003612    4431.2714    -311698.1 
     410    290.90458    162332.92    72.157824    72.157825    36.000548          120    19070.659    18932.026   -23155.621   -555.63177   -1591.9986    -870.0285    72.157824     62.49051    36.000548    4949.0214   -311713.23 
     420     287.0196    162301.34    72.153144    72.153144    35.998213          120    18178.099    18579.166   -25788.159   -493.66812   -1828.4608   -835.20422    72.153144    62.486456    35.998213    3656.3687   -311732.81 
     430    284.19303    162277.01    72.149539     72.14954    35.996414          120    16665.035    17230.477   -31613.198   -541.07224   -2151.5837   -335.65486    72.149539    62.483335    35.996414    760.77133   -311755.37 
     440    274.14995    162256.05    72.146432    72.146433    35.994864          120    16848.613    16373.653   -37326.204     -537.825   -2104.5555   -167.50355    72.146432    62.480644    35.994864   -1367.9792   -311761.86 
     450    265.33613    162235.65    72.143409    72.143409    35.993356          120    18445.542    16571.218   -39956.094   -412.16811   -1616.3242    314.60125    72.143409    62.478025    35.993356   -1646.4446   -311769.39 
     460    261.54043    162215.45    72.140415    72.140415    35.991862          120    20667.103    17916.433   -38846.534   -330.78436   -1575.3458   -10.257369    72.140415    62.475432    35.991862   -87.666427   -311786.17 
     470    258.69446    162197.17    72.137705    72.137706     35.99051          120    22448.676    19114.786    -33998.53   -228.33243   -1191.8583   -182.50105    72.137705    62.473086     35.99051    2521.6438   -311804.18 
     480    252.45965    162183.58    72.135689     72.13569    35.989504          120    23233.514    20049.353   -27862.678     199.6635   -1369.1074   -6.1379502    72.135689     62.47134    35.989504    5140.0632   -311814.56 
     490     246.8619    162177.12    72.134732    72.134732    35.989027          120    22968.801      21050.6   -25069.582    261.86552   -1462.6685    177.16063    72.134732    62.470511    35.989027    6316.6062    -311825.9 
     500    241.83695    162178.51    72.134939    72.134939     35.98913          120    21580.015    21143.746   -25098.589    14.840281   -1683.0489    590.34398    72.134939     62.47069     35.98913    5875.0573   -311836.65 
     510    238.17615    162186.61    72.136138    72.136139    35.989728          120    20572.244    20652.793   -27617.637     5.377492   -1957.2401    620.79875    72.136138    62.471729    35.989728    4535.7999   -311850.09 
     520    233.11277    162199.33    72.138025    72.138025     35.99067          120    20365.471    20040.354   -30815.298   -347.75404   -1956.1051    241.32353    72.138025    62.473363     35.99067     3196.842    -311860.4 
     530    228.75302    162214.73    72.140307    72.140308    35.991808          120    20009.318    19815.647   -34287.896   -675.70804   -2042.3144    243.42912    72.140307    62.475339    35.991808    1845.6898   -311871.21 
     540    221.34359    162231.07    72.142731    72.142731    35.993017          120    19614.775    19613.599   -35731.798   -929.81278   -1995.4821     606.0189    72.142731    62.477438    35.993017    1165.5254   -311875.49 
     550    216.32994    162247.53     72.14517     72.14517    35.994234          120    19714.679    19708.284   -35146.447    -738.7848   -1459.3991    327.64731     72.14517     62.47955    35.994234    1425.5053   -311883.27 
     560    213.67267     162264.4    72.147671    72.147671    35.995482          120    20184.681    20291.553   -33126.816   -751.42411   -1222.2102    870.56791    72.147671    62.481716    35.995482    2449.8059   -311895.21 
     570    209.52254    162282.86    72.150406    72.150407    35.996847          120    21084.446     20478.75   -30293.232   -433.17778   -1260.4062    951.56236    72.150406    62.484085    35.996847    3756.6544   -311903.92 
     580    206.36759     162304.2    72.153568    72.153569    35.998424          120     21019.26    20601.895   -28859.317   -147.19411   -642.16604    730.72364    72.153568    62.486824    35.998424     4253.946   -311914.13 
     590    203.12827    162328.89    72.157227    72.157228     36.00025          120    20818.891    20578.482   -27812.398   -30.305557   -476.91763    865.07555    72.157227    62.489992     36.00025    4528.3253   -311923.37 
     600     200.6117    162356.91    72.161379    72.161379    36.002321          120    20523.767    19931.312   -29010.682   -172.20052   -646.10165    1018.5778    72.161379    62.493588    36.002321    3814.7988   -311933.71 
     610    197.09301    162387.23     72.16587    72.165871    36.004562          120    19774.929    19411.565   -31641.063    -280.0855   -884.57471    167.53189     72.16587    62.497478    36.004562    2515.1438   -311941.47 
     620    192.87105    162418.23    72.170462    72.170462    36.006853          120    18953.917    19334.858   -34033.625   -416.19798   -1115.5744   -312.94627    72.170462    62.501454    36.006853    1418.3833   -311947.71 
     630    190.94969    162448.57    72.174956    72.174956    36.009095          120    18880.504    18575.725    -35728.48   -827.89864    -1211.991   -146.85535    72.174956    62.505346    36.009095    575.91642   -311957.96 
     640     186.5527    162477.35    72.179218    72.179219    36.011222          120    18479.965    18236.035   -36223.364   -656.85506   -1163.9938     303.0889    72.179218    62.509037    36.011222    164.21196   -311963.25 
     650    181.81427    162504.24      72.1832      72.1832    36.013208          120    18458.421    18046.952   -35433.192    -702.8694   -1523.5625   -189.91105      72.1832    62.512485    36.013208    357.39382   -311967.11 
     660    179.39691    162529.68    72.186966    72.186967    36.015087          120     18828.56    18630.989   -33331.594   -823.55681   -1681.9343   -423.59693    72.186966    62.515747    36.015087    1375.9853   -311974.57 
     670    177.44595    162554.84    72.190691    72.190692    36.016946          120    18567.343    18913.497   -31691.569   -667.24039   -1433.6311    -235.7302    72.190691    62.518973    36.016946     1929.757   -311983.45 
     680    172.98436    162580.39    72.194472    72.194473    36.018832          120    17523.338    18486.649   -31078.607   -429.38514   -1331.9019   -16.607515    72.194472    62.522248    36.018832    1643.7931   -311986.58 
     690    170.97229    162605.99    72.198262    72.198263    36.020723          120    16959.361    18093.426   -32427.741   -379.41809   -994.81148   -76.772481    72.198262     62.52553    36.020723    875.01556   -311993.38 
     700    168.42058    162630.79    72.201933    72.201933    36.022554          120    16772.681    17406.182   -34340.928   -602.94913   -952.10027    30.933996    72.201933    62.528708    36.022554    -54.02158   -311999.44 
     710    164.99052    162653.77    72.205333    72.205334    36.024251          120    16144.543    16915.626   -35793.079   -997.60458    -1371.531   -578.79061    72.205333    62.531653    36.024251   -910.96985   -312003.17 
     720    164.45514     162674.1    72.208341    72.208341    36.025751          120    15640.397    17117.762   -36354.719   -1065.1658   -1178.0316   -982.56564    72.208341    62.534258    36.025751   -1198.8536   -312011.92 
     730    162.15689    162691.64    72.210936    72.210937    36.027046          120    15833.447    17614.733   -36111.513   -1011.3013   -1152.6305   -499.06945    72.210936    62.536506    36.027046   -887.77742   -312017.24 
     740    158.52184    162706.91    72.213195    72.213196    36.028173          120    16287.496    17592.417   -35656.606   -856.02465   -1571.2642   -425.97323    72.213195    62.538462    36.028173   -592.23073   -312019.49 
     750        155.3    162720.39    72.215189    72.215189    36.029168          120    15796.627    17302.124   -34777.926    -959.6079   -1664.7766   -109.94392    72.215189    62.540189    36.029168   -559.72507   -312022.82 
     760    154.06361    162732.31    72.216953    72.216953    36.030048          120    16173.099    17075.466   -33923.092   -1190.6445   -1933.6895   -429.56867    72.216953    62.541716    36.030048   -224.84216   -312029.58 
     770    153.41388    162743.17    72.218559     72.21856    36.030849          120    16590.909    17547.442   -33810.391   -1049.7706   -1582.8442   -563.71727    72.218559    62.543107    36.030849    109.31992   -312037.17 
     780    152.14498    162753.39    72.220071    72.220071    36.031604          120    16714.061    17518.483   -34334.269   -912.67684   -805.98244   -678.47702    72.220071    62.544417    36.031604   -33.908186   -312043.37 
     790    150.95569    162762.83    72.221467    72.221467      36.0323          120    16145.545    16979.337    -35123.33   -718.94124   -448.87314   -278.76547    72.221467    62.545625      36.0323   -666.14953   -312048.93 
     800    147.60954    162770.86    72.222655    72.222655    36.032893          120     15983.39    16743.696   -36093.267   -346.01508   -290.69421   -33.974552    72.222655    62.546654    36.032893   -1122.0604   -312050.31 
     810    145.11088    162777.03    72.223567    72.223568    36.033348          120    15724.184    16691.545   -36712.167   -18.960755   -544.05334   -293.84093    72.223567    62.547445    36.033348   -1432.1459   -312053.46 
     820    142.80204    162781.05    72.224162    72.224162    36.033644          120    14872.681    16112.235   -36640.913    187.31724   -851.15477   -132.79959    72.224162    62.547959    36.033644   -1885.3324   -312056.23 
     830    140.63496    162782.58    72.224389    72.224389    36.033758          120    14720.585    15842.105   -36366.186    106.47407    -1102.884   -161.53785    72.224389    62.548156    36.033758   -1934.4984   -312059.04 
     840    138.04027    162781.73    72.224262    72.224263    36.033695          120    15111.002    16073.516   -35935.747   -281.57448    -1230.764    172.30358    72.224262    62.548046    36.033695   -1583.7432   -312060.82 
     850    136.33934    162779.02    72.223862    72.223863    36.033495          120    15358.259    16525.166   -35516.195   -477.37461   -995.94357    551.27491    72.223862      62.5477    36.033495   -1210.9233   -312064.33 
     860    137.07107    162774.99    72.223266    72.223266    36.033198          120    15494.579    16398.947   -35451.885   -571.89647   -943.75708    342.27053    72.223266    62.547184    36.033198   -1186.1193   -312071.38 
     870    135.86384     162769.8    72.222498    72.222498    36.032814          120    15544.577    16387.772   -35175.497   -468.28742   -612.97503    246.83461    72.222498    62.546518    36.032814   -1081.0492   -312075.04 
     880     134.6588    162763.65    72.221588    72.221589    36.032361          120    15951.919    16756.447    -35208.28   -190.55108   -653.99756    290.79818    72.221588    62.545731    36.032361   -833.30476   -312078.31 
     890    133.67615    162756.87    72.220585    72.220586     36.03186          120    16348.949    16813.601    -35243.31   -361.33854   -644.17753     416.1586    72.220585    62.544862     36.03186    -693.5869   -312082.05 
     900    131.90957    162749.63    72.219514    72.219515    36.031326          120    16147.678    16539.612   -35138.069    -446.8978   -616.97317    735.13393    72.219514    62.543934    36.031326   -816.92643    -312084.1 
     910    130.39878     162741.9    72.218371    72.218371    36.030755          120    16495.042     16981.75   -34986.135   -52.145846   -333.82118    465.50152    72.218371    62.542944    36.030755   -503.11439    -312086.5 
     920     129.4238    162734.06    72.217211    72.217212    36.030177          120    16985.914      17619.3   -34349.968    79.968195   -52.135872    61.778083    72.217211     62.54194    36.030177    85.081964    -312089.4 
     930    128.23605    162726.76    72.216132    72.216132    36.029638          120    17095.502    17854.831   -33751.383    172.90622    200.92906   -274.17014    72.216132    62.541005    36.029638    399.65005   -312091.77 
     940    126.43442    162720.35    72.215183    72.215183    36.029165          120     16698.15      17939.2   -33336.193   -155.47216    244.19538   -415.20721    72.215183    62.540183    36.029165    433.71895   -312093.35 
     950    126.53324    162714.83    72.214366    72.214367    36.028758          120    16749.699     18253.01   -33643.183    -263.0821   -187.72927   -311.16897    72.214366    62.539476    36.028758    453.17498   -312097.68 
     960    126.47943    162710.19     72.21368    72.213681    36.028415          120    17024.641    18875.981   -34344.063   -430.76216   -119.48111   -152.20023     72.21368    62.538882    36.028415    518.85324   -312101.43 
     970      124.714    162706.43    72.213124    72.213124    36.028137          120    16974.167    18953.484    -34550.76   -313.63362   -330.77284    277.79564    72.213124      62.5384    36.028137    458.96377    -312101.7 
     980    124.44845    162703.45    72.212683    72.212683    36.027918          120    16951.694    18674.744   -34206.574   -365.49973   -630.49643    532.32996    72.212683    62.538018    36.027918    473.28785   -312105.11 
     990    123.08864    162701.18    72.212348    72.212348     36.02775          120    17002.537    18777.886   -34761.179    -160.3634   -917.42853    690.12689    72.212348    62.537728     36.02775    339.74808   -312105.91 
    1000      121.504    162699.45    72.212092    72.212092    36.027623          120    16847.908    18911.754    -35247.99     240.8897   -588.48508    536.39759    72.212092    62.537507    36.027623    170.55762    -312105.8 
Loop time of 306.366 on 1 procs for 1000 steps with 14848 atoms

Performance: 0.282 ns/day, 85.102 hours/ns, 3.264 timesteps/s
100.0% CPU use with 1 MPI tasks x no OpenMP threads

MPI task timing breakdown:
Section |  min time  |  avg time  |  max time  |%varavg| %total
---------------------------------------------------------------
Pair    | 247.82     | 247.82     | 247.82     |   0.0 | 80.89
Bond    | 0.0002768  | 0.0002768  | 0.0002768  |   0.0 |  0.00
Kspace  | 11.169     | 11.169     | 11.169     |   0.0 |  3.65
Neigh   | 40.514     | 40.514     | 40.514     |   0.0 | 13.22
Comm    | 0.40975    | 0.40975    | 0.40975    |   0.0 |  0.13
Output  | 0.010812   | 0.010812   | 0.010812   |   0.0 |  0.00
Modify  | 6.3326     | 6.3326     | 6.3326     |   0.0 |  2.07
Other   |            | 0.1088     |            |       |  0.04

Nlocal:    14848 ave 14848 max 14848 min
Histogram: 1 0 0 0 0 0 0 0 0 0
Nghost:    46874 ave 46874 max 46874 min
Histogram: 1 0 0 0 0 0 0 0 0 0
Neighs:    1.01163e+07 ave 1.01163e+07 max 1.01163e+07 min
Histogram: 1 0 0 0 0 0 0 0 0 0

Total # of neighbors = 10116300
Ave neighs/atom = 681.324
Ave special neighs/atom = 0
Neighbor list builds = 142
Dangerous builds = 0
PPPM initialization ...
  using 12-bit tables for long-range coulomb (../kspace.cpp:321)
  G vector (1/distance) = 0.202657
  grid = 36 50 24
  stencil order = 5
  estimated absolute RMS force accuracy = 0.000994385
  estimated relative force accuracy = 6.90562e-05
  using double precision FFTs
  3d grid and FFT values/proc = 65395 43200
Setting up Verlet run ...
  Unit style    : metal
  Current step  : 0
  Time step     : 0.001
Per MPI rank memory allocation (min/avg/max) = 152.6 | 152.6 | 152.6 Mbytes
Step Temp Volume Cella Cellb Cellc CellGamma Pxx Pyy Pzz Pxy Pxz Pyz Lx Ly Lz Press PotEng 
       0      121.504    162699.45    72.212092    72.212092    36.027623          120    16860.995    18925.088   -35240.049    241.36479   -588.43576    536.22491    72.212092    62.537507    36.027623    182.01147   -312105.61 
      10    121.96258    162698.02    72.211879     72.21188    36.027517          120    16730.087    18639.462   -35489.131   -162.07251    207.80229    637.92841    72.211879    62.537323    36.027517   -39.860735   -312109.44 
      20    120.04944    162696.65    72.211677    72.211677    36.027416          120    16882.765    18276.957   -35178.098   -517.80103    231.57788    239.60524    72.211677    62.537147    36.027416   -6.1250557    -312108.4 
      30    120.67888    162695.36    72.211486    72.211486     36.02732          120    16663.573    18353.588   -34747.396   -624.39669   -2.8192022    24.044944    72.211486    62.536982     36.02732    89.921713   -312111.91 
      40    119.79603    162694.28    72.211326    72.211326    36.027241          120    16587.583    18823.409   -34342.862   -299.50879   -48.251593    353.64322    72.211326    62.536843    36.027241    356.04341    -312112.5 
      50    118.64895    162693.67    72.211236    72.211236    36.027195          120    17096.792    18341.343   -34074.489   -120.48367   -271.76513    300.14638    72.211236    62.536765    36.027195    454.54854   -312112.06 
      60    118.16224    162693.62    72.211229     72.21123    36.027192          120    17226.975    17923.273   -33958.755   -150.30157   -557.72182    508.96015    72.211229     62.53676    36.027192    397.16441   -312112.76 
      70    118.49141    162694.03     72.21129     72.21129    36.027222          120    16990.313    17802.525   -34591.673   -95.128449   -568.35163    590.06771     72.21129    62.536812    36.027222       67.055   -312114.91 
      80    118.23656     162694.5    72.211359    72.211359    36.027257          120    16745.739    17673.882   -35207.352   -96.194452   -682.60673    813.59166    72.211359    62.536872    36.027257   -262.57685    -312115.6 
      90    118.72542    162694.63    72.211378    72.211379    36.027267          120    16507.859    17509.174   -35375.302    -9.810559   -554.78345     260.3653    72.211378    62.536888    36.027267   -452.75615   -312117.38 
     100    118.16044     162694.2    72.211314    72.211315    36.027235          120    16046.719    17272.066   -35094.768    -22.94593   -85.265281   -200.38376    72.211314    62.536833    36.027235   -591.99415   -312117.38 
     110    118.56592    162693.16     72.21116    72.211161    36.027158          120    16147.416    17716.556   -34305.156    10.198114   -89.127713   -512.02028     72.21116      62.5367    36.027158   -147.06135   -312118.35 
     120    117.27769    162692.02    72.210992    72.210993    36.027074          120    16821.407    18237.754    -33504.75   -80.815111    -265.4768   -393.93924    72.210992    62.536554    36.027074    518.13698   -312116.17 
     130    118.48162    162691.53     72.21092    72.210921    36.027038          120    16604.315    18841.353   -32956.687   -311.55656   -371.01748    16.239359     72.21092    62.536492    36.027038    829.66048   -312118.55 
     140    118.48191    162692.01     72.21099    72.210991    36.027073          120    16322.579    18650.323   -33107.681   -537.26382   -533.11198    7.3796256     72.21099    62.536553    36.027073    621.74027    -312118.3 
     150    118.16011    162693.22    72.211169     72.21117    36.027162          120    16103.523    18622.162   -33451.589   -758.48348   -567.98851    189.63587    72.211169    62.536707    36.027162    424.69855   -312117.17 
     160    119.28598    162694.84     72.21141     72.21141    36.027282          120    15873.681     18294.69   -34009.366   -845.53212   -491.26998    511.48437     72.21141    62.536916    36.027282    53.001769   -312118.05 
     170      120.408     162696.5    72.211655    72.211656    36.027405          120    16483.653    18108.961   -34076.268   -842.05639   -417.15077    577.48788    72.211655    62.537128    36.027405    172.11566   -312119.33 
     180    120.87979     162698.3    72.211921    72.211922    36.027538          120    17013.482    18165.011   -33691.836   -253.45472   -307.94002    620.22095    72.211921    62.537359    36.027538     495.5521   -312119.49 
     190    120.70691    162700.59     72.21226    72.212261    36.027707          120    16767.062    18539.868   -33317.869   -276.75228   -214.41597    442.74419     72.21226    62.537653    36.027707    663.02034   -312117.87 
     200    121.55485    162703.54    72.212697    72.212698    36.027925          120    16797.999    18673.457   -33751.211   -9.4861005   -266.85933   -189.56076    72.212697    62.538031    36.027925     573.4148   -312118.15 
     210    121.85327    162707.01     72.21321    72.213211    36.028181          120    16611.614    18264.381   -33996.032    91.305565   -168.41998   -172.84127     72.21321    62.538475    36.028181    293.32108   -312117.16 
     220    120.98333    162710.71    72.213757    72.213758    36.028454          120     16521.74    18507.602   -33882.153   -370.59083   -177.10744    330.66678    72.213757    62.538949    36.028454    382.39655   -312113.82 
     230     122.6162    162714.69    72.214346    72.214346    36.028747          120    16865.762    18811.407   -33790.866   -244.59268   -442.85001  -0.48466338    72.214346    62.539458    36.028747    628.76786   -312115.19 
     240    122.20082    162719.23    72.215018    72.215018    36.029082          120    17540.268    18715.971   -33605.338   -199.78618   -529.06195   -315.30026    72.215018     62.54004    36.029082    883.63342   -312112.15 
     250    123.53266    162724.57    72.215808    72.215808    36.029477          120    17410.438    18714.125   -33782.039   -446.52176   -511.69274   -186.96701    72.215808    62.540725    36.029477    780.84108   -312112.89 
     260     123.8024    162730.58    72.216697    72.216698     36.02992          120    17249.505    19201.103   -34448.668     -311.888    -400.4616    171.61584    72.216697    62.541495     36.02992    667.31332   -312110.96 
     270    124.43457    162737.12    72.217664    72.217664    36.030403          120    17336.953    19627.325   -34969.143   -260.02133   -461.37781    137.79101    72.217664    62.542332    36.030403    665.04517    -312109.9 
     280    125.67136    162744.15    72.218704    72.218704    36.030921          120      17551.9    19497.211   -34756.528   -457.16662   -692.73165    570.87535    72.218704    62.543233    36.030921    764.19432   -312110.33 
     290    126.62811    162751.75    72.219828    72.219828    36.031482          120    17507.436    19527.289   -34603.233   -681.83185   -525.81911    626.84656    72.219828    62.544206    36.031482    810.49755   -312109.82 
     300    126.60244    162759.97    72.221044    72.221044    36.032089          120    17624.781    19231.025   -34089.204   -831.29869   -939.60099    765.30181    72.221044    62.545259    36.032089    922.20056   -312108.15 
     310    127.35708    162768.87    72.222361    72.222361    36.032746          120    17033.536     19358.49   -33947.828   -687.68493   -774.01276     674.3429    72.222361      62.5464    36.032746     814.7329   -312107.15 
     320      126.917    162778.37    72.223766    72.223766    36.033447          120    16968.901    19627.794   -33828.969   -595.23747   -171.84678    671.24544    72.223766    62.547616    36.033447    922.57542   -312103.95 
     330    128.70292    162788.45    72.225256    72.225257    36.034191          120    16878.403    19122.054     -34608.3   -300.92072   -233.26524    517.54905    72.225256    62.548907    36.034191    464.05219    -312105.9 
     340    130.26263    162798.61    72.226758    72.226759     36.03494          120    16444.137    18564.294   -34942.668   -707.40277   -420.84026    43.312664    72.226758    62.550208     36.03494    21.920813   -312107.59 
     350    130.74083    162808.35    72.228199    72.228199    36.035659          120    17145.474    17804.575   -34944.519   -830.98396   -468.39498   -184.10304    72.228199    62.551455    36.035659    1.8435049   -312107.62 
     360    130.46235    162817.61    72.229569     72.22957    36.036342          120    17274.376    17323.628   -34936.521   -250.60232   -298.72765    80.806569    72.229569    62.552642    36.036342   -112.83928   -312105.79 
     370    130.33407    162826.31    72.230856    72.230856    36.036984          120    16546.195     17740.13   -34769.304   -34.144352    -157.8303    337.13701    72.230856    62.553756    36.036984   -160.99268   -312104.67 
     380    129.47587    162834.42    72.232055    72.232055    36.037582          120    16332.818    17927.927   -34534.986    109.98996    259.83888    385.58181    72.232055    62.554795    36.037582    -91.41385   -312102.31 
     390    131.50165    162842.06    72.233183    72.233184    36.038145          120    16051.615    18037.369   -33999.216    -136.4592   -109.12331    563.18494    72.233183    62.555772    36.038145    29.922502   -312105.57 
     400    130.41581    162849.35    72.234261    72.234261    36.038683          120    16258.868    17889.839   -34269.924   -253.80636    -1054.337    485.30133    72.234261    62.556706    36.038683   -40.405322   -312103.11 
     410    130.57165     162856.2    72.235275    72.235275    36.039189          120    16298.914    16892.711    -34410.02   -230.62336   -1098.0709    366.00889    72.235275    62.557584    36.039189    -406.1317   -312103.64 
     420    131.03978    162862.23    72.236167    72.236167    36.039634          120    16205.938    16182.279   -35071.518   -88.508224   -716.56668    443.88039    72.236167    62.558356    36.039634   -894.43393   -312105.17 
     430    130.55254    162866.93     72.23686    72.236861     36.03998          120    16566.574    15843.922   -35808.816   -46.697766   -327.10729    779.26931     72.23686    62.558957     36.03998   -1132.7737   -312104.56 
     440    130.80043    162870.09    72.237327    72.237328    36.040213          120    16546.523    16599.982   -35629.198   -504.98027   -110.89215    726.34373    72.237327    62.559361    36.040213   -827.56439   -312105.64 
     450    131.82716    162872.09    72.237624    72.237624    36.040361          120     16181.75    17753.228   -35346.856   -893.65943   -511.17138    602.69244    72.237624    62.559618    36.040361   -470.62585   -312108.42 
     460    131.02543    162873.48    72.237829     72.23783    36.040463          120    16670.235    18775.895   -34867.794   -850.29542   -662.73688    499.59135    72.237829    62.559796    36.040463    192.77863   -312107.53 
     470    129.95213       162875    72.238054    72.238055    36.040576          120    17418.369     18597.22   -34568.105   -912.90506   -699.65631     86.91761    72.238054    62.559991    36.040576    482.49477   -312106.84 
     480    129.05789       162877     72.23835     72.23835    36.040723          120    17601.801    18004.761   -34363.783   -667.32594   -750.45305   -168.02136     72.23835    62.560247    36.040723     414.2595   -312106.98 
     490    129.72088    162879.39    72.238703    72.238703    36.040899          120    17631.552    17537.173   -34596.597   -315.15657   -781.89031   -136.82063    72.238703    62.560552    36.040899    190.70966   -312110.26 
     500      129.769     162881.9    72.239074    72.239074    36.041084          120    17250.824    17635.635   -35217.351   -310.12565   -613.60243   -174.33787    72.239074    62.560874    36.041084    -110.2972   -312112.04 
     510    127.57091    162884.16    72.239407    72.239408    36.041251          120    16606.681    17905.318   -35838.015   -365.70853   -621.09412   -140.66965    72.239407    62.561163    36.041251    -442.0051   -312109.75 
     520    127.06376    162885.79    72.239648    72.239649    36.041371          120    16196.977    18082.426   -35920.864   -581.06618   -196.70464    200.97641    72.239648    62.561371    36.041371   -547.15394   -312111.33 
     530    128.48732    162886.73    72.239788    72.239788    36.041441          120    16556.208    18218.459   -35683.538   -802.68573   -143.95029    226.38937    72.239788    62.561492    36.041441   -302.95736   -312116.15 
     540    126.88128    162887.25    72.239865    72.239865    36.041479          120     16875.37    18394.489   -35596.465   -646.79957   -534.39198   -110.85002    72.239865    62.561559    36.041479   -108.86856   -312115.49 
     550    125.33934    162887.63    72.239922    72.239922    36.041507          120    17124.801    18146.996   -34898.209   -214.82056   -539.75453     194.4246    72.239922    62.561608    36.041507    124.52938   -312114.71 
     560    125.42892    162888.11    72.239992    72.239993    36.041543          120    17067.473    17529.447   -34668.087   -333.19483   -474.58279    46.069361    72.239992    62.561669    36.041543   -23.722061   -312117.29 
     570    125.12141    162888.54    72.240056    72.240057    36.041575          120    16829.197    17333.741   -34640.909   -130.68989   -501.83211   -558.30442    72.240056    62.561725    36.041575    -159.3239   -312119.54 
     580    124.81965    162888.77     72.24009     72.24009    36.041591          120    16218.727    17749.805   -34646.988    -196.6104    -650.0459    -909.7174     72.24009    62.561754    36.041591   -226.15192   -312120.93 
     590     124.3232    162888.75    72.240086    72.240087    36.041589          120    16591.875    17823.029   -34565.357   -476.79017      -839.42    -915.8147    72.240086     62.56175    36.041589    -50.15083   -312121.83 
     600    123.81745    162888.68    72.240077    72.240077    36.041585          120    16938.025    18196.275   -34222.338   -452.16844   -854.60594   -1222.6656    72.240077    62.561742    36.041585    303.98743   -312122.87 
     610    123.75785    162888.96    72.240118    72.240119    36.041605          120    17012.188    18409.157   -34273.686   -287.35538   -665.60202    -845.6839    72.240118    62.561778    36.041605    382.55302   -312124.22 
     620     123.9962    162889.64    72.240218    72.240219    36.041655          120    16948.699    18280.064   -35164.586   -386.53501   -748.73895   -580.10282    72.240218    62.561865    36.041655    21.392073   -312126.76 
     630    124.23984     162890.3    72.240316    72.240317    36.041704          120    16623.009    17503.743    -35457.73   -364.70058   -954.58892   -492.20627    72.240316     62.56195    36.041704   -443.65967   -312129.04 
     640    122.21961    162890.41    72.240331    72.240332    36.041712          120    16058.314    17323.424   -35625.316   -180.20424   -835.24165   -902.51377    72.240331    62.561963    36.041712   -747.85935   -312127.06 
     650    123.00183    162889.66    72.240221    72.240222    36.041657          120    16025.456    17855.955   -35168.618   -477.99854   -983.03959   -558.11697    72.240221    62.561867    36.041657   -429.06915   -312130.04 
     660    122.90666    162888.47    72.240045    72.240045    36.041569          120    17092.572    17964.437   -34395.301   -398.85064   -945.54609   -797.86435    72.240045    62.561714    36.041569    220.56918   -312131.19 
     670    120.46385    162887.56    72.239911    72.239912    36.041502          120    17291.353    18238.364   -33739.074   -254.21961   -657.44681   -923.26912    72.239911    62.561599    36.041502    596.88071   -312128.07 
     680    122.42944    162887.36    72.239881    72.239881    36.041487          120    17404.566    18226.581   -34372.946    -32.42656   -491.09734   -1350.9928    72.239881    62.561573    36.041487    419.40048   -312133.56 
     690    121.14769    162887.64    72.239922    72.239922    36.041507          120    17146.599    18082.053   -35379.555    167.27695    -644.1087   -1249.1869    72.239922    62.561608    36.041507    -50.30097   -312132.08 
     700    120.86209    162887.83     72.23995    72.239951    36.041522          120    16491.488     17905.44   -36317.326   -336.93535   -684.03185   -980.58328     72.23995    62.561633    36.041522   -640.13248   -312132.35 
     710    121.52842    162887.25    72.239864    72.239865    36.041479          120    15683.145    17971.303   -36780.265    -351.0331   -1077.2334    -1049.035    72.239864    62.561558    36.041479   -1041.9391   -312134.35 
     720    120.72207    162885.51    72.239608    72.239608    36.041351          120    15905.929    17705.247   -35953.825    -127.7454   -893.59394   -747.88577    72.239608    62.561336    36.041351   -780.88271   -312133.65 
     730    121.15648     162882.9    72.239221    72.239222    36.041158          120    16342.398    17770.122   -35480.533   -304.72545   -164.83798   -719.35862    72.239221    62.561001    36.041158   -456.00407   -312134.76 
     740    120.89694    162879.87    72.238774    72.238775    36.040935          120    16830.282    18424.105   -34739.667   -605.10022   -614.18379   -344.07692    72.238774    62.560614    36.040935    171.57352      -312135 
     750    121.48447    162877.14    72.238371    72.238371    36.040734          120    17052.207    18379.394   -33843.198   -766.16919   -884.06286   -94.482936    72.238371    62.560265    36.040734    529.46748   -312136.63 
     760    120.46307    162875.16    72.238077    72.238078    36.040587          120    17085.755    18781.612   -33910.241   -534.18476   -1099.5936   -303.55004    72.238077     62.56001    36.040587     652.3757   -312134.87 
     770    120.23383    162873.99    72.237905    72.237905    36.040501          120    16606.602    19104.029   -34801.322   -498.21066   -1006.8691   -639.68187    72.237905    62.559861    36.040501    303.10308   -312134.25 
     780     121.1133    162873.22    72.237791    72.237791    36.040444          120    16345.034    18899.674   -35899.302   -486.60327   -934.20184   -900.67239    72.237791    62.559762    36.040444   -218.19818   -312135.97 
     790    121.09953    162872.25    72.237648    72.237648    36.040373          120    16160.176    18738.852   -36096.027   -185.46048   -1333.0739   -613.27572    72.237648    62.559639    36.040373   -398.99967   -312135.84 
     800    120.59009    162870.86    72.237441    72.237442     36.04027          120    15943.351    18935.049   -35824.191   -133.46398   -1478.6002   -544.89836    72.237441     62.55946     36.04027   -315.26365   -312134.27 
     810    120.64039     162869.2    72.237196    72.237197    36.040148          120    17021.451    18710.987   -34831.581   -177.10751   -1054.2177   -369.02214    72.237196    62.559248    36.040148    300.28585    -312133.4 
     820    121.53541    162867.93    72.237008    72.237009    36.040054          120    17251.281    18723.369   -34352.788   -167.70808   -1064.8964   -355.41577    72.237008    62.559085    36.040054    540.62084   -312134.41 
     830    121.94482    162867.32    72.236919    72.236919    36.040009          120    17047.222    18777.018     -34693.1   -214.88638   -1229.7528   -501.25923    72.236919    62.559007    36.040009    377.04648   -312134.62 
     840    121.58096    162867.26    72.236909     72.23691    36.040004          120    17302.118    18791.603   -34144.403   -421.44527   -1526.7567     32.60367    72.236909    62.558999    36.040004    649.77307   -312133.09 
     850    121.61121    162867.96    72.237013    72.237013    36.040056          120    17457.306     19038.13   -34465.282   -327.18175   -1814.6455    152.51405    72.237013    62.559089    36.040056    676.71807   -312131.44 
     860    122.20359     162869.4    72.237225    72.237226    36.040162          120    17154.673    18529.645    -34940.29   -290.65901   -1525.8152   -249.49685    72.237225    62.559273    36.040162    248.00948   -312130.93 
     870    124.41109    162871.07    72.237472    72.237473    36.040285          120    17095.471    17865.747   -35639.846   -285.99831   -1248.9836    -738.5346    72.237472    62.559487    36.040285   -226.20939    -312133.3 
     880    123.36456    162872.42    72.237673    72.237673    36.040385          120    16697.188    17959.617   -35866.285   -59.399027   -1023.2187   -945.54587    72.237673     62.55966    36.040385   -403.16015   -312130.02 
     890    123.36813    162873.24    72.237793    72.237794    36.040445          120    16664.445    17766.051   -35710.164    213.12472   -1420.2191   -785.34214    72.237793    62.559765    36.040445   -426.55603   -312128.63 
     900    124.12801    162873.55    72.237839     72.23784    36.040468          120    16877.194    17849.846     -35049.6    75.285103   -1178.6482   -568.87174    72.237839    62.559804    36.040468   -107.52001    -312128.6 
     910    124.69337    162873.73    72.237866    72.237866    36.040482          120    17373.233    18242.053    -34561.09   -146.41836   -1285.0242   -362.95902    72.237866    62.559827    36.040482    351.39874   -312127.63 
     920     124.4438    162874.31    72.237951    72.237952    36.040524          120    17639.683    18627.662   -34324.428   -250.01487   -2003.8256   -200.13022    72.237951    62.559902    36.040524    647.63884   -312125.69 
     930    125.43215     162875.6    72.238143    72.238144     36.04062          120     17722.99    18317.406    -34418.09   -526.79475   -1995.9209   -110.20995    72.238143    62.560068     36.04062    540.76866   -312126.17 
     940    125.90098    162877.48    72.238421    72.238422    36.040759          120    16867.754    18493.953   -34705.765   -510.60462   -1906.0756   -50.493703    72.238421    62.560308    36.040759    218.64771   -312125.23 
     950    125.88456    162879.58    72.238731    72.238731    36.040913          120    16647.558    18562.193   -35046.887   -433.56445   -1355.8582   -435.22454    72.238731    62.560577    36.040913     54.28812    -312124.3 
     960    126.71473    162881.68    72.239041    72.239042    36.041068          120    17021.973    18384.568   -35024.202   -363.37999   -797.14258   -853.69583    72.239041    62.560846    36.041068     127.4463    -312124.6 
     970    125.98281    162883.87    72.239365    72.239365    36.041229          120    17141.895    18428.296   -34635.319   -375.12011   -226.54262   -721.23745    72.239365    62.561125    36.041229    311.62401   -312121.79 
     980    127.34045    162886.32    72.239727    72.239728    36.041411          120    16918.837    18983.501   -35040.689   -304.40253    -305.5768    -1031.024    72.239727     62.56144    36.041411    287.21629   -312123.01 
     990    127.30433    162889.07    72.240134    72.240134    36.041613          120    17090.657    18996.379   -34606.632   -324.54276   -672.63511   -1158.9584    72.240134    62.561792    36.041613    493.46797   -312121.38 
    1000    128.79771    162892.29    72.240611    72.240611    36.041851          120    17322.499    18990.779   -34575.473   -189.99264   -829.37682   -785.44649    72.240611    62.562205    36.041851    579.26833    -312123.1 
    1010    129.74346    162896.06    72.241167    72.241168    36.042129          120     16760.69    18854.493   -34599.056     -112.861    -979.4321   -439.91712    72.241167    62.562687    36.042129    338.70898   -312123.78 
    1020    128.31349    162900.14     72.24177     72.24177    36.042429          120    17133.851    18662.433   -34685.846    9.0003337    -975.5158   -514.81224     72.24177    62.563208    36.042429    370.14595   -312119.84 
    1030    128.69072     162904.5    72.242415    72.242416    36.042752          120    17431.055    18711.795   -34753.096      161.158   -743.00097   -452.23243    72.242415    62.563768    36.042752    463.25132    -312120.1 
    1040    129.19909    162909.25    72.243117    72.243118    36.043102          120    17372.911    18750.699   -34884.632    499.36677   -637.63227   -594.49896    72.243117    62.564375    36.043102    412.99248    -312120.3 
    1050    129.57474     162914.3    72.243863    72.243863    36.043474          120    17310.171    18341.504   -35150.569    327.82005   -679.28287   -1250.6297    72.243863    62.565021    36.043474      167.035   -312120.86 
    1060    130.18324    162919.35     72.24461     72.24461    36.043846          120    17168.329    18524.604   -36045.636   -284.46227   -1073.9525   -1580.9748     72.24461    62.565668    36.043846   -117.56765   -312121.61 
    1070    129.16142    162924.05    72.245304    72.245305    36.044193          120     16428.73    18606.358   -36511.651   -402.16006   -800.17963    -1711.961    72.245304     62.56627    36.044193   -492.18776   -312119.41 
    1080    128.29383    162927.98    72.245885    72.245886    36.044483          120    15722.006     18089.59   -35926.047   -158.39119   -398.71367   -1582.2199    72.245885    62.566773    36.044483   -704.81694   -312117.93 
    1090    129.54828    162930.96    72.246326    72.246327    36.044703          120    15939.162    18150.126   -35319.463   -112.32161   -446.84895   -826.05588    72.246326    62.567154    36.044703   -410.05825   -312120.72 
    1100    127.59429    162933.35    72.246679     72.24668    36.044879          120    16363.075     18491.73   -34657.483    36.924326   -698.29548   -214.14211    72.246679     62.56746    36.044879    65.773799   -312117.37 
    1110    128.10217    162935.69    72.247025    72.247025    36.045051          120    16966.776     18304.47    -34677.77   -190.22897   -229.19066    390.87858    72.247025    62.567759    36.045051    197.82547   -312119.08 
    1120    128.46778    162938.18    72.247392    72.247393    36.045235          120    17068.733    18407.392   -34553.466   -351.50084     53.16893    191.09045    72.247392    62.568078    36.045235    307.55276   -312120.21 
    1130      128.693    162940.94    72.247802    72.247802    36.045439          120    16888.303    18455.485   -34221.965   -573.70248   -459.81798   -288.68997    72.247802    62.568432    36.045439    373.94091   -312121.52 
    1140    128.71101    162944.05     72.24826    72.248261    36.045668          120    16954.014    18147.334    -34574.95   -700.18687   -819.80331   -707.81173     72.24826    62.568829    36.045668    175.46577   -312122.56 
    1150    127.81175    162947.22     72.24873     72.24873    36.045902          120    16901.971    17815.121   -35675.882   -412.86815   -1166.6274   -696.98592     72.24873    62.569236    36.045902   -319.59668   -312121.81 
    1160    127.62096    162949.92    72.249128    72.249129    36.046101          120     16805.27    17750.375   -36249.916   -398.20327   -927.51326   -545.27894    72.249128    62.569581    36.046101    -564.7568   -312122.52 
    1170    127.80113    162951.86    72.249415    72.249416    36.046244          120    17063.789    17718.742   -35932.078   -72.670656   -835.97834   -905.05082    72.249415    62.569829    36.046244   -383.18243   -312124.65 
    1180    127.62872    162953.26    72.249621    72.249622    36.046347          120    16785.426    17738.736    -35128.95   -141.70602   -725.04363   -939.20249    72.249621    62.570008    36.046347   -201.59638   -312126.01 
    1190    126.59992    162954.34    72.249782    72.249783    36.046427          120    16759.944    18014.251   -35228.049   -163.28519   -1154.8743   -786.57718    72.249782    62.570147    36.046427   -151.28455   -312125.29 
    1200    125.93352    162955.16    72.249903    72.249904    36.046487          120     16611.56    18011.834   -35601.885     -102.396   -1275.3118   -602.77361    72.249903    62.570252    36.046487   -326.16365   -312125.73 
    1210    126.53734    162955.59    72.249966    72.249966    36.046519          120        16365    18217.238   -35152.338   -84.148664   -1297.0214   -645.76517    72.249966    62.570306    36.046519   -190.03322   -312128.41 
    1220    125.59465    162955.75     72.24999     72.24999    36.046531          120    16468.172    18337.012   -35108.476   -220.40552   -1110.4643   -465.62062     72.24999    62.570327    36.046531   -101.09722   -312128.09 
    1230    125.17914    162955.82        72.25    72.250001    36.046536          120    16997.115    18885.542   -35085.628   -95.824898   -1133.3267   -972.34206        72.25    62.570336    36.046536    265.67628   -312128.94 
    1240    125.16482    162956.22    72.250059     72.25006    36.046565          120     17735.42    18897.635   -34885.046    124.00059   -1364.8739   -1091.4378    72.250059    62.570387    36.046565    582.66999   -312130.27 
    1250    125.64492    162957.23    72.250209    72.250209     36.04664          120    17399.706    18537.422   -35179.906   -384.67513   -1011.7422   -636.89602    72.250209    62.570517     36.04664    252.40724    -312133.2 
    1260    123.26273    162958.57    72.250406    72.250407    36.046738          120    17395.425    18188.123   -34976.872    2.0944734   -896.82729   -863.72194    72.250406    62.570688    36.046738    202.22517   -312130.24 
    1270    122.56649    162960.09    72.250631    72.250632     36.04685          120    17161.044    18405.445   -35180.262    335.69395   -1063.9332   -934.34781    72.250631    62.570883     36.04685    128.74229   -312129.99 
    1280    123.81656    162961.73    72.250874    72.250875    36.046972          120    16962.387    18491.878   -34705.163    305.20473   -954.15388   -745.90088    72.250874    62.571093    36.046972    249.70056   -312133.94 
    1290    123.58837    162963.61    72.251152    72.251152     36.04711          120    17113.982    18256.706   -34575.048   -27.598127   -963.95653   -798.04103    72.251152    62.571334     36.04711    265.21361   -312135.27 
    1300    123.75531    162965.74    72.251466    72.251467    36.047267          120    16897.537    18316.894   -34670.635     121.9425   -1189.5115   -742.56836    72.251466    62.571606    36.047267    181.26527   -312136.83 
    1310    121.74197    162967.98    72.251797    72.251797    36.047432          120    16564.112    18041.976   -35353.362     350.9566   -895.10043   -856.87971    72.251797    62.571892    36.047432   -249.09128   -312133.93 
    1320    121.03927    162969.81    72.252068    72.252069    36.047568          120    16009.745    17627.217   -35672.694    377.25054   -801.40514   -720.22596    72.252068    62.572127    36.047568   -678.57769   -312133.75 
    1330    121.81983    162970.82    72.252218    72.252218    36.047642          120    16542.034    18056.082   -36079.026    249.95682   -917.19086   -853.83597    72.252218    62.572257    36.047642   -493.63658   -312136.14 
    1340     121.3462    162971.19    72.252272    72.252273    36.047669          120    16917.704    17912.521   -35896.801   -344.25492   -1223.5206    -1167.915    72.252272    62.572304    36.047669   -355.52516   -312135.66 
    1350    121.31422    162971.07    72.252255    72.252255     36.04766          120    16943.462    17700.093   -36279.261   -666.35378   -1062.1806   -1225.1752    72.252255    62.572289     36.04766   -545.23527   -312136.38 
    1360    121.24211    162970.32    72.252143    72.252144    36.047605          120    17037.655      17981.6   -36414.664   -675.86078   -725.22583   -1412.1694    72.252143    62.572192    36.047605   -465.13635   -312136.59 
    1370    120.50149    162969.06    72.251957    72.251957    36.047512          120    17444.865     17819.69   -35555.769   -618.04449    -852.3588   -1304.2345    72.251957    62.572031    36.047512   -97.071222   -312135.86 
    1380    121.09206    162967.67    72.251752    72.251752     36.04741          120    17517.976    17788.497    -35503.23   -385.62637   -1405.5021   -887.31762    72.251752    62.571853     36.04741   -65.586086   -312137.03 
    1390    121.35635    162966.27    72.251545    72.251545    36.047306          120    17064.901    18239.989   -35378.603   -172.01953   -1185.9989   -632.50889    72.251545    62.571674    36.047306   -24.570961   -312137.65 
    1400    121.07285    162964.86    72.251337    72.251337    36.047202          120    16550.732    18585.135    -35515.45   -203.25835   -671.72303   -446.32984    72.251337    62.571494    36.047202   -126.52778   -312137.35 
    1410    120.74043    162963.39    72.251119    72.251119    36.047094          120    16837.362    18631.906    -35353.56   -382.84728   -740.52221   -313.21995    72.251119    62.571305    36.047094     38.56931   -312136.31 
    1420    120.59814    162961.93    72.250903    72.250904    36.046986          120    16479.222    18316.739   -35799.095    -501.1752   -1158.5203   -442.11644    72.250903    62.571118    36.046986   -334.37812   -312136.02 
    1430    122.63474    162960.14    72.250639    72.250639    36.046854          120    16217.314    18142.783   -35669.773   -772.50288     -1181.46   -275.36465    72.250639    62.570889    36.046854   -436.55857   -312139.21 
    1440    122.53314    162957.91    72.250309     72.25031     36.04669          120    16295.928    18369.794   -35560.243   -956.80446   -1301.9929   -534.70363    72.250309    62.570604     36.04669   -298.17404   -312138.25 
    1450    122.20307    162955.41     72.24994    72.249941    36.046506          120    16526.517    18430.313   -35253.747    -387.2381   -1207.2844   -863.93257     72.24994    62.570284    36.046506     -98.9722   -312137.03 
    1460    122.35587    162952.89    72.249567    72.249568     36.04632          120    16746.868     18460.32   -34711.348    67.591788   -1071.5901   -1134.8082    72.249567    62.569961     36.04632    165.28009    -312136.3 
    1470    123.20911    162950.61    72.249231    72.249232    36.046152          120     16860.77    18439.402   -34755.621    5.2626308    -1087.846   -1347.2875    72.249231     62.56967    36.046152    181.51705   -312136.89 
    1480    122.53004    162948.65     72.24894    72.248941    36.046007          120     17065.25     18087.35   -34709.331     93.30748   -1444.3837   -649.29176     72.24894    62.569418    36.046007    147.75638   -312134.73 
    1490    122.61228    162946.89     72.24868     72.24868    36.045877          120    17027.605    18131.408   -35457.639   -14.647242   -1137.5735   -251.25478     72.24868    62.569193    36.045877    -99.54201   -312133.87 
    1500    123.55611    162945.09    72.248415    72.248416    36.045745          120      16731.8    18790.117   -35580.143   -189.55661   -509.59904    414.66324    72.248415    62.568963    36.045745   -19.408553   -312134.82 
    1510    124.83506    162943.37     72.24816     72.24816    36.045617          120     17110.01    19098.786   -35206.036   -62.589396   -78.558164     163.9315     72.24816    62.568742    36.045617    334.25315   -312136.36 
    1520    123.70747    162942.14    72.247978    72.247979    36.045527          120    17691.812      19230.4   -34434.007   -134.93684   -359.95855    94.336611    72.247978    62.568585    36.045527    829.40195   -312132.87 
    1530    124.84196     162941.9    72.247943    72.247944    36.045509          120    17485.911    19028.931   -34245.054    11.512855   -659.33362   -106.14149    72.247943    62.568555    36.045509    756.59608   -312133.37 
    1540    124.26657    162942.61    72.248048    72.248049    36.045562          120    17630.409    18628.489     -34077.6    194.72647   -679.11076   -560.71745    72.248048    62.568646    36.045562     727.0992   -312130.84 
    1550    124.64501    162944.16    72.248277    72.248278    36.045676          120    17363.484    18070.523   -33838.091   -104.34599   -836.12006   -294.99777    72.248277    62.568844    36.045676    531.97221   -312130.24 
    1560    126.18444    162946.35      72.2486    72.248601    36.045837          120    17737.271     18214.19    -34008.58   -404.37067   -690.32629   -707.48683      72.2486    62.569124    36.045837    647.62704   -312131.83 
    1570    125.35415    162949.28    72.249033    72.249034    36.046053          120    17819.567    18912.942   -33941.258   -553.84065   -1059.5642    -753.1902    72.249033    62.569499    36.046053    930.41683   -312128.95 
    1580    126.50565    162953.18     72.24961     72.24961    36.046341          120    17840.481    18967.334   -34786.042   -528.38549   -1184.8569   -463.78513     72.24961    62.569998    36.046341    673.92408   -312129.98 
    1590     126.8743    162957.76    72.250287    72.250287    36.046679          120    17873.556    18536.624   -35422.738   -190.72592   -1325.9496     -216.032    72.250287    62.570584    36.046679    329.14742   -312129.14 
    1600    126.86875    162962.59    72.251001    72.251002    36.047035          120    17472.576    18492.224   -35745.795    -409.5831   -1137.1393   -493.40125    72.251001    62.571203    36.047035    73.001647   -312128.29 
    1610     127.6108    162967.41    72.251713    72.251714     36.04739          120    17319.587    18824.696   -35462.151   -582.30544   -1176.8909   -524.34115    72.251713     62.57182     36.04739    227.37752   -312128.85 
    1620    127.57629    162972.36    72.252445    72.252445    36.047755          120     17368.69    19172.605   -35009.864   -442.44028   -527.59531   -346.77401    72.252445    62.572453    36.047755    510.47703    -312127.8 
    1630    127.87943    162977.73    72.253239    72.253239    36.048151          120    17248.445    19085.705   -34798.533   -186.15283   -390.53874   -450.14125    72.253239    62.573141    36.048151    511.87216   -312127.39 
    1640    128.17287    162983.57    72.254102    72.254102    36.048582          120    17043.548    19345.885   -34421.756   -193.52794   -449.36844   -276.09954    72.254102    62.573888    36.048582    655.89212   -312127.49 
    1650    126.72352    162989.96    72.255046    72.255046    36.049053          120    17354.407    18915.137   -35304.442   -235.41932   -185.89911   -409.81002    72.255046    62.574706    36.049053    321.70079   -312123.51 
    1660    126.57578    162996.54    72.256017    72.256018    36.049538          120    16986.629    18585.367   -35373.272   -183.53646    90.629924   -540.51203    72.256017    62.575547    36.049538    66.241493   -312122.52 
    1670    128.31398    163003.02    72.256975    72.256976    36.050016          120      17429.8    18563.727   -35305.563     67.51705   -57.914681   -903.53239    72.256975    62.576377    36.050016    229.32158   -312125.74 
    1680     129.6099    163009.53    72.257938    72.257938    36.050496          120    17745.628    18574.696   -36020.983   -93.218981   -1043.5634    -634.2789    72.257938     62.57721    36.050496    99.780421   -312128.36 
    1690    128.39252    163015.96    72.258888    72.258888     36.05097          120    17794.926    18099.799   -35913.953   -322.85997   -1350.3396   -352.05147    72.258888    62.578033     36.05097   -6.4092869   -312125.69 
    1700    128.72255    163022.21     72.25981    72.259811     36.05143          120    17725.343    17880.023   -35403.841    102.78852   -1008.4637    -275.6476     72.25981    62.578832     36.05143    67.175046   -312126.46 
    1710    127.96078     163028.3    72.260711    72.260711    36.051879          120    17396.276    17448.612   -35078.817   -69.885188   -822.73236   -337.92684    72.260711    62.579612    36.051879   -77.976306   -312124.86 
    1720    128.80251    163034.11    72.261569    72.261569    36.052307          120    17415.291    17550.735   -35228.572   -88.888718   -432.85629    -199.3099    72.261569    62.580355    36.052307   -87.515278   -312126.68 
    1730     128.2199    163039.59    72.262379     72.26238    36.052712          120    17380.355    17639.583   -35641.607     68.93285   -419.26431    178.37565    72.262379    62.581057    36.052712   -207.22283    -312126.3 
    1740    128.21704    163044.64    72.263125    72.263125    36.053084          120    17271.054    17810.048   -35993.106   -268.98958   -137.34457   -218.63299    72.263125    62.581702    36.053084   -304.00169   -312126.57 
    1750    128.41191    163049.17    72.263794    72.263794    36.053418          120    17356.233     17994.01   -36079.072   -247.17615   -510.67294   -52.460071    72.263794    62.582282    36.053418   -242.94303   -312127.47 
    1760    127.90034    163053.21    72.264391    72.264392    36.053716          120     16928.66    17785.761   -36410.293   -478.21345   -557.24228    -165.1123    72.264391    62.582799    36.053716   -565.29058   -312127.17 
    1770    127.58839    163056.47    72.264872    72.264873    36.053956          120    17032.971    17404.079   -36097.692   -722.42172   -395.31891   -718.67064    72.264872    62.583216    36.053956   -553.54718   -312127.82 
    1780    128.77683       163059    72.265246    72.265246    36.054142          120    17329.995    17620.953   -35086.843   -709.15929   -501.05463     -365.225    72.265246    62.583539    36.054142   -45.298339   -312130.92 
    1790    126.24083    163061.37    72.265596    72.265597    36.054317          120    17555.986     17992.87   -34722.461   -541.52506   -460.97744   -75.184583    72.265596    62.583843    36.054317    275.46487   -312127.34 
    1800    127.41064    163063.96    72.265979     72.26598    36.054508          120    17464.302    18356.822   -35053.157   -729.90346   -769.44912    321.78255    72.265979    62.584175    36.054508    255.98925    -312130.6 
    1810    126.71704    163066.75    72.266391    72.266392    36.054713          120    16840.767     18041.48   -35131.416   -552.64589   -1110.1497    55.284488    72.266391    62.584531    36.054713    -83.05637   -312130.62 
    1820    126.98253    163069.34    72.266774    72.266774    36.054904          120    16831.947    17466.648   -35645.786   -458.92302   -1242.3399    83.492321    72.266774    62.584863    36.054904   -449.06369   -312132.68 
    1830    125.78141    163071.33    72.267067    72.267068    36.055051          120    17201.308    17141.379   -36016.633   -660.66472   -1015.1452   -376.48198    72.267067    62.585117    36.055051   -557.98184   -312131.25 
    1840    124.41077     163072.6    72.267256    72.267256    36.055145          120    17425.971    17637.324   -36223.485   -659.38889   -661.64294   -960.08223    72.267256     62.58528    36.055145   -386.72981   -312130.28 
    1850    124.32957    163073.34    72.267364    72.267364    36.055199          120    17450.259    17443.515   -35926.417    -5.817451    -939.9521   -1196.9534    72.267364    62.585374    36.055199   -344.21415   -312131.19 
    1860    124.84107    163073.63    72.267407    72.267407     36.05522          120    17286.158    17101.507   -35224.026    234.97822   -788.56286   -1463.0824    72.267407    62.585411     36.05522     -278.787   -312133.68 
    1870     124.4188    163073.53    72.267393    72.267394    36.055213          120    16906.627    17047.261   -35354.457   -49.268842   -733.32699   -1378.4725    72.267393    62.585399    36.055213   -466.85621   -312134.28 
    1880    123.45796    163072.86    72.267294    72.267295    36.055164          120    16615.602    17036.284   -35851.018   -242.34879   -1228.4405   -1279.0253    72.267294    62.585313    36.055164    -733.0443   -312133.69 
    1890    124.44152    163071.37    72.267073    72.267073    36.055054          120    16488.225    17363.923    -35452.05   -428.62354   -1402.2928   -800.81816    72.267073    62.585122    36.055054   -533.30071   -312137.06 
    1900    123.81087     163069.3    72.266767    72.266768    36.054901          120    16895.323    17832.031   -34997.049   -420.81486   -1183.9879   -1002.0765    72.266767    62.584857    36.054901   -89.898585   -312136.96 
    1910    125.13699    163067.14    72.266449    72.266449    36.054742          120    17356.482    17866.111   -34984.034   -214.02434   -1348.3738   -662.04301    72.266449    62.584581    36.054742    79.519513   -312140.76 
    1920    122.39522    163065.12     72.26615     72.26615    36.054593          120    17125.477    17861.709   -35150.805   -283.26122   -965.74716   -494.04237     72.26615    62.584322    36.054593    -54.53986   -312136.59 
    1930    122.46416    163063.05    72.265845    72.265845    36.054441          120    16223.657    17697.097   -35335.332   -390.30422   -797.37046   -397.49748    72.265845    62.584058    36.054441   -471.52612   -312138.12 
    1940    123.05994    163060.49    72.265466    72.265466    36.054252          120    16003.735    17512.331   -35734.362   -281.06703   -1072.1449   -296.13196    72.265466     62.58373    36.054252   -739.43171    -312140.1 
    1950    122.13187    163057.14    72.264971    72.264972    36.054005          120    16146.611    17482.827   -35357.061   -391.54199   -1045.5947   -237.40193    72.264971    62.583302    36.054005   -575.87419    -312139.1 
    1960    122.17636    163053.18    72.264386    72.264387    36.053713          120    16656.669    16922.248   -35101.429   -269.16889   -809.11907    168.11329    72.264386    62.582795    36.053713   -507.50415   -312139.81 
    1970    122.70225    163048.72    72.263727    72.263727    36.053384          120    17181.526    16863.362   -35661.486   -148.13832   -486.59998   -361.09084    72.263727    62.582224    36.053384   -538.86621   -312141.75 
    1980     120.2482    163043.77    72.262996    72.262996    36.053019          120    16977.026    17390.106   -35258.514   -388.71014   -511.05884   -933.61544    72.262996    62.581591    36.053019   -297.12747   -312137.37 
    1990    120.72005    163038.61    72.262234    72.262234    36.052639          120    17040.818    17706.395   -34809.156   -438.29726   -533.63797   -1204.5457    72.262234    62.580931    36.052639   -20.647567   -312138.42 
    2000    122.57161    163033.58     72.26149    72.261491    36.052268          120    17417.633    18241.134    -34856.32   -157.17371    -560.3137   -1072.0668     72.26149    62.580287    36.052268    267.48227   -312142.37 
    2010    121.96957    163028.98    72.260811    72.260812    36.051929          120    17552.081    18327.333   -34949.496   -128.34456   -727.57249   -999.71593    72.260811    62.579699    36.051929    309.97276   -312141.46 
    2020    121.58609    163024.93    72.260212    72.260213    36.051631          120    18125.053    17949.681   -34770.163   -146.86584   -718.94819   -832.46482    72.260212     62.57918    36.051631    434.85687   -312140.36 
    2030    122.16334     163021.5    72.259707    72.259707    36.051378          120    17974.589    18072.588   -35158.794   -178.37573   -954.34068   -301.82444    72.259707    62.578742    36.051378    296.12756   -312141.51 
    2040    122.80339    163018.53    72.259266    72.259267    36.051159          120    17307.494    18075.872   -35337.748    39.143783   -851.31142   -38.320928    72.259266    62.578361    36.051159    15.205582   -312142.72 
    2050    121.24719    163015.71     72.25885    72.258851    36.050951          120    17747.326    17760.425   -34933.304   -100.72013   -678.90846   -146.88825     72.25885       62.578    36.050951    191.48245    -312139.2 
    2060     122.2271    163013.22    72.258483    72.258484    36.050768          120    17896.435    18352.248   -34738.146   -175.58308   -707.06272   -330.15272    72.258483    62.577683    36.050768    503.51217   -312140.92 
    2070    122.55498    163011.38    72.258211    72.258212    36.050632          120     17561.17    18815.337   -35304.747    -337.9362    -619.6234   -500.13806    72.258211    62.577447    36.050632     357.2532   -312140.95 
    2080    122.38833    163009.99    72.258006    72.258006     36.05053          120    17418.645    18339.188   -36118.516    -730.2116   -698.35413   -498.75438    72.258006    62.577269     36.05053   -120.22768   -312139.94 
    2090    123.03224    163008.59    72.257798    72.257799    36.050426          120    17787.706    17905.464   -35327.228   -367.51028   -726.25694   -734.36647    72.257798    62.577089    36.050426    121.98068   -312140.02 
    2100    122.77842    163007.39    72.257621    72.257621    36.050338          120    18171.953    18699.153   -35165.425    -335.4427   -499.62327   -1040.9544    72.257621    62.576936    36.050338    568.56037   -312138.63 
    2110    124.15983    163006.86    72.257543    72.257544    36.050299          120    18275.429     18696.05   -35288.492   -559.00346   -727.36975   -757.37279    72.257543    62.576868    36.050299    560.99564   -312140.58 
    2120    124.03011    163007.03    72.257567    72.257568    36.050311          120    18026.414    18379.275   -35062.677   -391.86676   -1178.6999   -351.12974    72.257567     62.57689    36.050311    447.67093   -312139.74 
    2130    123.69348    163007.77    72.257677    72.257678    36.050366          120    17673.421    18643.225   -34603.569   -309.12741   -1197.2055     100.9314    72.257677    62.576985    36.050366    571.02553   -312138.33 
    2140    124.15004    163009.13    72.257878    72.257879    36.050466          120    17383.855    18683.074   -35197.829   -304.11673   -938.30824    144.04638    72.257878    62.577159    36.050466    289.70003   -312138.48 
    2150    124.84429    163010.82    72.258128    72.258129    36.050591          120    17026.705    18655.194   -35588.275   -499.83302   -587.98651    77.801639    72.258128    62.577375    36.050591    31.208019   -312138.57 
    2160    123.79367    163012.48    72.258373    72.258374    36.050713          120    17167.481     17930.64   -36153.967   -344.88557    -511.9781   -469.03324    72.258373    62.577587    36.050713   -351.94877   -312135.45 
    2170    124.42131    163013.72    72.258557    72.258557    36.050805          120    17306.644    17898.387   -35730.011   -247.73846   -449.01366   -911.09721    72.258557    62.577746    36.050805   -174.99298   -312135.24 
    2180     124.5172    163014.73    72.258705    72.258706    36.050879          120    17407.136    18072.332   -35022.521   -211.00341   -464.08838   -1026.5489    72.258705    62.577875    36.050879    152.31594   -312134.72 
    2190    124.98141    163015.87    72.258873    72.258874    36.050963          120    17233.798    18273.443   -34884.639   -533.46815   -451.00226   -1330.5561    72.258873    62.578021    36.050963    207.53376   -312134.61 
    2200    125.19577    163017.22    72.259073    72.259074    36.051062          120    17027.144     17905.82   -34502.228   -612.41962   -804.48965   -998.61208    72.259073    62.578194    36.051062    143.57854   -312133.92 
    2210    126.23459    163018.68    72.259289    72.259289     36.05117          120    17041.206    17565.046   -34905.058   -709.66472   -803.94557   -967.90642    72.259289     62.57838     36.05117   -99.602049   -312134.57 
    2220    126.90891    163019.97    72.259479     72.25948    36.051265          120    16694.002    17452.883   -35315.625   -681.30267   -887.93965   -607.14104    72.259479    62.578546    36.051265    -389.5803   -312134.51 
    2230     125.9403    163020.71    72.259589    72.259589    36.051319          120     16343.67    17085.754     -35908.5   -602.87622    -1094.889    187.88586    72.259589     62.57864    36.051319   -826.35875   -312131.29 
    2240    127.78052    163020.48    72.259556    72.259556    36.051303          120    16907.745    16783.455   -35447.649   -566.39547   -608.27478    368.18403    72.259556    62.578612    36.051303   -585.48304   -312133.92 
    2250    127.59495     163019.6    72.259425    72.259426    36.051238          120    17692.376    17273.514   -34817.314   -378.72863   -624.73078    327.61116    72.259425    62.578498    36.051238    49.525047   -312132.67 
    2260     127.7864    163018.78    72.259304    72.259305    36.051178          120    18091.125     17869.46   -34485.306   -239.86607    -704.5689   -39.436635    72.259304    62.578394    36.051178    491.75988   -312132.27 
[...]
    9200    122.88854    163154.66    72.279376    72.279376    36.061191          120    17217.341    18099.472    -35783.99    35.254357   -1099.6608    250.38735    72.279376    62.595776    36.061191   -155.72557   -312143.94 
    9210    124.64781    163156.12     72.27959    72.279591    36.061299          120    17231.617    17518.742   -36220.269   -261.06815   -1029.3372    69.669618     72.27959    62.595962    36.061299   -489.97025   -312147.05 
    9220    123.83084    163156.99    72.279719    72.279719    36.061363          120    17009.402    17393.143   -35786.038   -511.15016   -1215.8752     413.0595    72.279719    62.596073    36.061363   -461.16451   -312144.95 
    9230    126.31234    163157.24    72.279756    72.279757    36.061381          120    16740.564    17266.785   -35703.521    -115.2351   -1684.0664    29.752884    72.279756    62.596106    36.061381   -565.39036   -312149.31 
    9240    125.02798    163156.81    72.279693    72.279693     36.06135          120    16589.881    17500.053   -35692.947    254.03672   -1025.0239    353.84074    72.279693    62.596051     36.06135   -534.33762   -312146.33 
    9250    124.54184    163155.71     72.27953    72.279531    36.061269          120    16383.933     17668.56    -35941.75    20.386267   -717.69716    574.38182     72.27953     62.59591    36.061269   -629.75251   -312145.17 
    9260    124.66405    163153.84    72.279254    72.279255    36.061131          120    16114.487    17578.584   -35816.122   -189.90636   -554.46033     304.2318    72.279254    62.595671    36.061131   -707.68373   -312145.17 
    9270    124.85254    163151.14    72.278855    72.278856    36.060932          120    16286.214    17469.042   -35747.442   -367.29394   -1082.8731     628.5889    72.278855    62.595325    36.060932   -664.06189   -312145.14 
    9280    124.77787    163147.66    72.278342    72.278342    36.060676          120    16918.995    17137.351   -35670.529   -369.20907   -915.84172    364.99378    72.278342    62.594881    36.060676   -538.06105   -312144.48 
    9290    125.80081    163143.54    72.277733    72.277734    36.060372          120    16696.023    17032.577   -35687.762    -230.2605   -676.25911    377.61759    72.277733    62.594354    36.060372   -653.05397   -312146.21 
    9300    124.72781    163138.69    72.277016    72.277017    36.060014          120    17110.833     17370.52   -36543.731   -58.920649    -1168.489    264.38573    72.277016    62.593733    36.060014   -687.45913   -312143.77 
    9310    125.60979    163133.09     72.27619     72.27619    36.059602          120    17376.888    17479.857   -36121.624    51.632794   -1245.4654   -231.51819     72.27619    62.593017    36.059602   -421.62636   -312145.47 
    9320    126.04602    163127.03    72.275295    72.275296    36.059156          120    17223.266    17772.807   -36112.002     18.48715   -935.74221   -40.767273    72.275295    62.592242    36.059156   -371.97657   -312145.58 
    9330    124.87057    163120.67    72.274356    72.274356    36.058687          120     17604.25    17934.893   -35660.088   -139.79648   -1052.0839    71.405691    72.274356    62.591429    36.058687   -40.314946    -312142.8 
    9340    125.51127    163114.29    72.273413    72.273413    36.058217          120    17481.025    17856.629   -35833.197   -370.44538   -1403.9664   -214.30683    72.273413    62.590612    36.058217   -165.18106   -312144.06 
    9350     126.4845     163107.8    72.272455    72.272455    36.057738          120    17242.855    18031.658   -35935.175    118.57398    -566.3328   -265.57005    72.272455    62.589782    36.057738   -220.22087   -312145.94 
    9360    124.97391    163101.19    72.271478    72.271479    36.057251          120    17644.735    17823.857   -35387.391    353.96337    -190.1932   -288.78417    72.271478    62.588937    36.057251    27.066906   -312142.83 
    9370    126.15057     163094.7     72.27052    72.270521    36.056773          120    17464.983    18644.426   -35450.851    72.048203   -446.54017   -289.82256     72.27052    62.588107    36.056773    219.51943   -312144.61 
    9380    127.20849    163088.64    72.269624    72.269624    36.056326          120    17813.057     19276.55   -34727.361   -90.137544   -655.75415    233.56837    72.269624    62.587331    36.056326    787.41546    -312146.7 
    9390     125.2733    163083.61    72.268882    72.268882    36.055956          120    18089.142     19621.72   -34333.257   -332.86926   -1162.1373    523.96282    72.268882    62.586688    36.055956    1125.8682   -312142.37 
    9400    126.67899       163080    72.268348    72.268348    36.055689          120    18364.406    19090.086   -34703.829   -343.24059   -1186.9523    511.39516    72.268348    62.586226    36.055689    916.88753   -312144.68 
    9410    125.73055    163077.56    72.267988    72.267988     36.05551          120    18074.493    18718.423   -34827.808   -35.758282   -974.87841   -66.454577    72.267988    62.585914     36.05551    655.03597   -312143.05 
    9420    126.04527    163076.01    72.267758    72.267759    36.055396          120    18247.044    18655.538     -34690.5    135.80369   -1316.2148   -260.17126    72.267758    62.585715    36.055396    737.36082   -312143.68 
    9430    127.42789     163075.4    72.267668    72.267669    36.055351          120    18421.412    18973.877   -34686.916   -213.28881   -1167.4093    16.073124    72.267668    62.585637    36.055351    902.79115   -312146.18 
    9440    125.55111    163075.89    72.267741    72.267742    36.055387          120    17965.022    19407.167   -34714.189   -151.63147   -1221.6145    -434.3848    72.267741      62.5857    36.055387    886.00006    -312142.5 
    9450    125.37977    163077.49    72.267977    72.267977    36.055505          120    18104.032     19027.12   -34018.067   -252.85784   -1142.8988   -559.95842    72.267977    62.585905    36.055505    1037.6951   -312142.27 
    9460    125.43723     163080.3    72.268393    72.268394    36.055712          120    18097.517    19200.114    -34225.38   -237.10336   -1103.0795   -470.55942    72.268393    62.586265    36.055712    1024.0838   -312142.72 
    9470    125.65254    163084.33    72.268987    72.268988    36.056009          120    17979.276      19307.6   -34659.514    24.525568   -746.63836   -400.56992    72.268987     62.58678    36.056009    875.78731   -312143.05 
    9480    126.52845    163089.37    72.269732    72.269732     36.05638          120    18087.637    18600.439   -34808.672    60.466311   -609.18716   -726.97296    72.269732    62.587424     36.05638    626.46791   -312144.54 
    9490    126.19907    163095.11    72.270581    72.270581    36.056804          120    17757.754    18238.596   -34887.541   -75.079461   -880.94828   -464.99359    72.270581    62.588159    36.056804    369.60292   -312144.37 
    9500    125.36338    163101.22    72.271483    72.271484    36.057254          120    17467.284    18054.405   -35147.829    10.117476   -911.21022   -90.814486    72.271483    62.588941    36.057254       124.62   -312143.05 
    9510    125.87744    163107.41    72.272397    72.272397     36.05771          120    17573.958    17826.592   -35669.443    2.2073156   -997.59096   -77.004715    72.272397    62.589732     36.05771   -89.630988   -312144.18 
    9520    126.30548    163113.38    72.273278    72.273279    36.058149          120    17199.872     17746.83   -35834.144    7.2702862   -960.83246    107.99652    72.273278    62.590496    36.058149   -295.81429   -312145.25 
    9530     125.9466    163118.88    72.274091    72.274092    36.058555          120    16707.415    17906.241    -35765.99    311.45948   -796.07605   -35.906454    72.274091      62.5912    36.058555   -384.11142   -312145.19 
    9540    124.56123    163123.83    72.274822    72.274823     36.05892          120    16891.459    17506.524   -35523.286    460.60213    -1155.224   -85.828649    72.274822    62.591833     36.05892   -375.10098    -312142.7 
    9550    125.85003    163128.23    72.275471    72.275472    36.059244          120    16887.857    17331.074   -35401.316    157.33921   -1288.3781   -183.69565    72.275471    62.592395    36.059244   -394.12833   -312145.64 
    9560    124.64216    163132.05    72.276036    72.276037    36.059526          120    16681.334    17328.578   -35729.726    211.52586   -929.94115    -215.2312    72.276036    62.592884    36.059526    -573.2712   -312143.49 
    9570    125.99967    163135.12     72.27649     72.27649    36.059752          120    16541.719     17483.59   -36013.952    102.12911   -527.93333   -249.47484     72.27649    62.593277    36.059752   -662.88091   -312146.76 
    9580     124.8398    163137.36    72.276821    72.276821    36.059917          120    17212.793    17165.131   -35682.923    291.59878    -648.3205   -443.45697    72.276821    62.593563    36.059917   -434.99942   -312145.23 
    9590    125.73971       163139    72.277062    72.277062    36.060037          120    17115.915        17315   -35816.374    463.34356   -828.18843   -550.64595    72.277062    62.593772    36.060037   -461.81952    -312147.2 
    9600    123.20875    163140.07     72.27722    72.277221    36.060116          120    17268.924    17642.422   -35962.684    213.52343   -477.11102    52.486393     72.27722    62.593909    36.060116   -350.44569   -312142.76 
    9610    125.48885    163140.66    72.277307    72.277308     36.06016          120    17629.561    17129.927   -36047.228   -310.51536   -326.89171   -33.496696    72.277307    62.593985     36.06016   -429.24654   -312147.56 
    9620    123.99429    163140.72    72.277317    72.277318    36.060164          120    17468.923    17926.822   -36195.867   -288.45789   -515.22403   -664.41964    72.277317    62.593993    36.060164   -266.70755   -312145.33 
    9630    125.35374    163140.49    72.277282    72.277282    36.060147          120    17562.184     18246.09   -35190.108   -248.33177   -766.32434   -284.16438    72.277282    62.593963    36.060147    206.05548   -312148.53 
    9640     124.4325    163140.48    72.277281    72.277282    36.060147          120    17802.828    18162.157   -34463.411    -113.6986   -918.57363   -27.065008    72.277281    62.593962    36.060147    500.52488    -312146.8 
    9650    123.96041    163141.08     72.27737    72.277371    36.060191          120    17924.311     18389.64   -34436.822    288.48664   -1258.0399   -16.012766     72.27737    62.594039    36.060191    625.70977    -312146.3 
    9660    123.92585    163142.39    72.277563    72.277563    36.060287          120    17894.694    18294.953   -35097.787    377.78822   -1572.9519   -122.40871    72.277563    62.594206    36.060287     363.9534   -312146.84 
    9670     123.2881    163144.11    72.277818    72.277818    36.060414          120    17651.283    17916.324   -35586.093     283.7435   -1303.6258   -239.84331    72.277818    62.594427    36.060414   -6.1620381   -312145.85 
    9680     125.3965    163145.82    72.278069     72.27807     36.06054          120    17085.894    17800.035   -35882.245     316.3671   -1395.8716   -88.241116    72.278069    62.594645     36.06054   -332.10544   -312149.78 
    9690    123.56177    163147.12    72.278262    72.278263    36.060636          120    16947.687    18188.388   -36261.422    260.30141   -867.54707   -105.97205    72.278262    62.594812    36.060636   -375.11565   -312146.57 
    9700      123.728    163147.95    72.278384    72.278385    36.060697          120    17099.869    18254.263   -36513.352    185.10594   -476.61966    337.67947    72.278384    62.594918    36.060697    -386.4066   -312147.11 
    9710    124.49708    163148.28    72.278433    72.278434    36.060721          120    16912.912    17668.418   -36193.314     79.86424   -787.39173    321.86993    72.278433     62.59496    36.060721   -537.32788   -312148.79 
    9720    123.60314    163147.96    72.278386    72.278386    36.060698          120    16948.823    17123.949   -35695.142   -24.453056   -838.26098    87.495636    72.278386    62.594919    36.060698   -540.78988   -312147.28 
    9730    123.49377    163146.99    72.278243    72.278243    36.060626          120    17321.733    17223.655   -35584.208   -312.38359   -1132.8203   -142.74514    72.278243    62.594795    36.060626   -346.27332   -312147.16 
    9740    124.30151    163145.59    72.278036    72.278037    36.060523          120    17314.718    17723.275   -35648.503   -393.86579   -1438.7599   -258.26931    72.278036    62.594616    36.060523   -203.50316   -312148.78 
    9750    123.29169    163143.99      72.2778      72.2778    36.060405          120    17470.718    18343.465    -35450.46   -313.41857   -1417.6623    26.721506      72.2778    62.594411    36.060405    121.24122   -312146.53 
    9760    125.25784     163142.5    72.277579    72.277579    36.060295          120    17167.891    18204.126   -35619.252   -154.86877   -1246.9595   -42.326364    72.277579     62.59422    36.060295   -82.411498   -312149.72 
    9770    124.87384    163140.96    72.277352    72.277352    36.060182          120    17679.777    18011.903   -35890.157    126.53508   -1074.4473   -242.59193    72.277352    62.594023    36.060182   -66.158636    -312149.3 
    9780     123.4717    163139.37    72.277117    72.277118    36.060065          120    17998.953    18103.061   -36039.765    62.571462   -977.75817   -402.54585    72.277117     62.59382    36.060065    20.749405   -312146.54 
    9790    123.55483    163137.82    72.276888    72.276888     36.05995          120    17613.376    18368.282   -36090.914    38.071326   -896.91318    -33.86442    72.276888    62.593622     36.05995   -36.418533    -312146.6 
    9800    123.65108    163136.23    72.276654    72.276654    36.059834          120    17401.392    18260.425   -36016.432   -135.10767   -1138.3015   -133.18237    72.276654    62.593419    36.059834   -118.20504   -312146.59 
    9810    123.48133    163134.55    72.276405    72.276406     36.05971          120     17200.51    18433.543   -35457.471   -100.22284   -826.36982   -82.406408    72.276405    62.593204     36.05971    58.860643   -312146.24 
    9820    124.65575    163132.94    72.276168    72.276168    36.059591          120    16830.462    18562.528   -35292.044    225.51568   -762.47734   -267.08437    72.276168    62.592998    36.059591    33.649017   -312148.55 
    9830    124.19671    163131.42    72.275943    72.275943    36.059479          120    17171.103    18188.032   -35259.441    158.32261   -362.11431    -299.5035    72.275943    62.592803    36.059479    33.231513   -312147.29 
    9840    124.62966    163129.97    72.275729    72.275729    36.059372          120     17420.47    17704.452   -34907.144    287.61668    -450.4354   -406.41569    72.275729    62.592618    36.059372     72.59251   -312147.45 
    9850    125.97849    163128.63    72.275531    72.275531    36.059273          120    17360.135    17943.488   -35024.529    202.54655   -628.77132   -371.72147    72.275531    62.592446    36.059273    93.031549   -312149.76 
    9860    123.82074     163127.4     72.27535     72.27535    36.059183          120    17655.426    18136.415   -35810.796   -302.11909   -864.26125   -185.33632     72.27535     62.59229    36.059183   -6.3182538    -312145.3 
    9870    124.53812    163126.22    72.275175    72.275176    36.059096          120    17815.776    18382.418    -35660.92   -458.25948    -843.2014   -474.07025    72.275175    62.592138    36.059096    179.09137   -312146.17 
    9880    124.49234    163125.24    72.275031    72.275032    36.059024          120    17839.946    18502.998   -35604.959   -583.89576   -1027.3298   -650.45185    72.275031    62.592014    36.059024    245.99517   -312145.74 
    9890    124.20839    163124.58    72.274932    72.274933    36.058975          120    17707.805     18070.45   -34995.156   -313.29405   -593.87682   -484.65961    72.274932    62.591928    36.058975    261.03255   -312144.61 
    9900    124.47418    163124.29    72.274889     72.27489    36.058953          120    18089.092     18330.05   -34574.132    142.57889   -666.14736   -222.53907    72.274889    62.591891    36.058953     615.0034   -312144.67 
    9910    125.84563    163124.73    72.274955    72.274956    36.058986          120    18226.317    18454.936   -34298.404    470.82606   -758.81981   -53.355065    72.274955    62.591948    36.058986    794.28293   -312146.91 
    9920    124.66361    163126.12    72.275161    72.275161    36.059089          120    17986.568    18567.449   -34589.545   -98.550824    -1287.851   -327.00603    72.275161    62.592126    36.059089    654.82411   -312144.22 
    9930    125.41061    163128.23    72.275471    72.275472    36.059244          120    17204.384    18355.539   -35518.433   -26.221781   -1408.4254   -514.52045    72.275471    62.592395    36.059244     13.82984   -312145.13 
    9940     126.0313    163130.37    72.275788    72.275789    36.059402          120    17053.791    18232.756   -35756.706    357.26804   -1649.9182   -442.88925    72.275788    62.592669    36.059402    -156.7196   -312146.12 
    9950    124.73845    163132.31    72.276075    72.276075    36.059545          120    17295.065    18034.292   -35551.329    428.59346   -1447.4262    -327.8164    72.276075    62.592917    36.059545   -73.990842   -312143.16 
    9960    125.33099    163134.13    72.276343    72.276344    36.059679          120    17534.812    17695.986   -35193.854    75.353131   -1214.1924   -85.666763    72.276343     62.59315    36.059679    12.314757   -312143.72 
    9970    125.49729    163135.89    72.276604    72.276604    36.059809          120    17334.526    17738.201   -35577.772    111.31754    -1308.369     104.5286    72.276604    62.593376    36.059809   -168.34845   -312143.58 
    9980    125.10545    163137.44    72.276832    72.276833    36.059923          120    17476.242    17784.246   -35619.744   -26.903523   -1371.0792   -165.01842    72.276832    62.593573    36.059923   -119.75185   -312142.49 
    9990    126.21928    163138.81    72.277035    72.277035    36.060024          120    17176.452    17776.893   -35252.578    -25.06584   -1291.5643     -126.855    72.277035    62.593749    36.060024   -99.744189   -312144.03 
   10000    125.65411       163140     72.27721     72.27721    36.060111          120    16385.543    17568.381   -35433.543    40.856856   -1200.1087    225.76478     72.27721      62.5939    36.060111    -493.2068   -312142.67 
Loop time of 2867.15 on 1 procs for 10000 steps with 14848 atoms

Performance: 0.301 ns/day, 79.643 hours/ns, 3.488 timesteps/s
100.0% CPU use with 1 MPI tasks x no OpenMP threads

MPI task timing breakdown:
Section |  min time  |  avg time  |  max time  |%varavg| %total
---------------------------------------------------------------
Pair    | 2461.7     | 2461.7     | 2461.7     |   0.0 | 85.86
Bond    | 0.0024529  | 0.0024529  | 0.0024529  |   0.0 |  0.00
Kspace  | 111.03     | 111.03     | 111.03     |   0.0 |  3.87
Neigh   | 226.88     | 226.88     | 226.88     |   0.0 |  7.91
Comm    | 3.5866     | 3.5866     | 3.5866     |   0.0 |  0.13
Output  | 0.10698    | 0.10698    | 0.10698    |   0.0 |  0.00
Modify  | 62.825     | 62.825     | 62.825     |   0.0 |  2.19
Other   |            | 1.036      |            |       |  0.04

Nlocal:    14848 ave 14848 max 14848 min
Histogram: 1 0 0 0 0 0 0 0 0 0
Nghost:    46865 ave 46865 max 46865 min
Histogram: 1 0 0 0 0 0 0 0 0 0
Neighs:    1.00884e+07 ave 1.00884e+07 max 1.00884e+07 min
Histogram: 1 0 0 0 0 0 0 0 0 0

Total # of neighbors = 10088372
Ave neighs/atom = 679.443
Ave special neighs/atom = 0
Neighbor list builds = 805
Dangerous builds = 0
 
All done!
Total wall time: 0:52:54
