LAMMPS (16 Mar 2018)
Reading data file ...
  triclinic box = (0 0 0) to (9.208 7.97436 18.376) with tilt (-4.604 0 0)
  1 by 1 by 1 MPI processor grid
  reading atoms ...
  116 atoms
Finding 1-2 1-3 1-4 neighbors ...
  special bond factors lj:   0          0          0         
  special bond factors coul: 0          0          0         
  0 = max # of 1-2 neighbors
  0 = max # of 1-3 neighbors
  0 = max # of 1-4 neighbors
  1 = max # of special neighbors
Replicating atoms ...
  triclinic box = (0 0 0) to (73.664 63.7949 36.752) with tilt (-36.832 0 0)
  1 by 1 by 1 MPI processor grid
  14848 atoms
Finding 1-2 1-3 1-4 neighbors ...
  special bond factors lj:   0          0          0         
  special bond factors coul: 0          0          0         
  0 = max # of 1-2 neighbors
  0 = max # of 1-3 neighbors
  0 = max # of 1-4 neighbors
  1 = max # of special neighbors
  Time spent = 0.00752687 secs
PPPM initialization ...
WARNING: System is not charge neutral, net charge = -0.2048 (../kspace.cpp:302)
  using 12-bit tables for long-range coulomb (../kspace.cpp:321)
  G vector (1/distance) = 0.201681
  grid = 36 50 24
  stencil order = 5
  estimated absolute RMS force accuracy = 0.00105653
  estimated relative force accuracy = 7.33721e-05
  using double precision FFTs
  3d grid and FFT values/proc = 65395 43200
Neighbor list info ...
  update every 1 steps, delay 0 steps, check yes
  max neighbors/atom: 2000, page size: 100000
  master list distance cutoff = 15.3
  ghost atom cutoff = 15.3
  binsize = 7.65, bins = 15 9 5
  3 neighbor lists, perpetual/occasional/extra = 3 0 0
  (1) pair morse, perpetual
      attributes: half, newton on
      pair build: half/bin/newton/tri
      stencil: half/bin/3d/newton/tri
      bin: standard
  (2) pair buck, perpetual, copy from (1)
      attributes: half, newton on
      pair build: copy
      stencil: none
      bin: none
  (3) pair lj/cut/coul/long, perpetual, copy from (1)
      attributes: half, newton on
      pair build: copy
      stencil: none
      bin: none
Setting up Verlet run ...
  Unit style    : metal
  Current step  : 0
  Time step     : 0.001
Per MPI rank memory allocation (min/avg/max) = 145.7 | 145.7 | 145.7 Mbytes
Step Temp Volume Cella Cellb Cellc CellGamma Pxx Pyy Pzz Pxy Pxz Pyz Lx Ly Lz Press PotEng 
       0          350    172711.88       73.664    73.664001       36.752          120   -207336.45    -207394.2   -278373.08    28.858148   -8.9019385    11.902817       73.664    63.794896       36.752   -231034.57   -309191.56 
      10    383.68728    172654.55    73.655849     73.65585    36.747933          120   -208109.69   -208194.11   -255181.75    125.52471   -27.156602   -190.10519    73.655849    63.787837    36.747933   -223828.52   -309284.46 
      20    658.29933    172486.46    73.631938    73.631939    36.736004          120   -203608.13   -203260.86    -195219.5    37.875756   -271.99796   -419.91857    73.631938     63.76713    36.736004   -200696.16    -309844.9 
      30    682.02543    172221.24     73.59418     73.59418    36.717166          120   -173470.03    -173129.1   -115923.49   -196.46287   -844.65353   -480.96553     73.59418     63.73443    36.717166   -154174.21    -309941.5 
      40    464.42576    171886.32    73.546442    73.546442    36.693349          120   -125763.77   -126068.31   -35940.122   -746.28035   -1153.6901   -509.06396    73.546442    63.693088    36.693349   -95924.067   -309557.07 
      50    554.81763    171516.82    73.493704    73.493705    36.667037          120   -86135.933    -86881.37   -6000.7061   -671.84987   -1158.0064   -632.31367    73.493704    63.647415    36.667037    -59672.67   -309750.41 
      60    840.88367    171139.33    73.439747    73.439747    36.640117          120   -65444.767   -65258.876   -46294.088   -759.08313   -2003.4865   -475.44385    73.439747    63.600687    36.640117   -58999.244   -310326.05 
      70    1004.4936    170764.34    73.386069     73.38607    36.613336          120   -53090.332   -53045.653   -109823.08   -1758.1406   -2447.9238   -595.34227    73.386069    63.554201    36.613336   -71986.356   -310694.08 
      80    870.57811     170394.3    73.333022    73.333022     36.58687          120   -46307.904   -47442.584   -155776.71   -1819.5524   -2766.6547    36.183248    73.333022     63.50826     36.58687   -83175.734   -310498.13 
      90    612.53512    170031.04    73.280873    73.280874    36.560853          120   -41651.681   -42395.562   -169596.39   -2036.3764   -3213.0084   -590.82072    73.280873    63.463098    36.560853   -84547.877   -310052.59 
     100    627.77762    169679.52    73.230338    73.230339     36.53564          120   -25984.653   -26235.569   -148940.85   -1805.2147   -2949.5921    -956.5537    73.230338    63.419334     36.53564    -67053.69   -310122.12 
     110    795.92571    169349.62    73.182848    73.182848    36.511946          120   -6075.6719    -6501.633   -107055.86   -1858.4784   -1714.6316   -1174.5248    73.182848    63.378206    36.511946   -39877.723   -310489.73 
     120    809.36207    169051.47    73.139874    73.139875    36.490506          120     4874.943    4810.0915   -57949.793   -1812.4105   -1125.8699   -1464.2931    73.139874     63.34099    36.490506   -16088.253   -310564.35 
     130    710.59464    168790.04    73.102153    73.102154    36.471687          120    4072.7756    5289.5902     -19404.4   -1670.9157   -1096.8842   -1557.7635    73.102153    63.308322    36.471687   -3347.3447   -310418.16 
     140    660.17872    168563.63    73.069452    73.069453    36.455372          120   -289.16057    -417.5272   -6486.2018   -1155.6063   -933.69363   -1460.5519    73.069452    63.280002    36.455372   -2397.6299   -310356.89 
     150     705.2031    168365.17    73.040765    73.040765    36.441059          120   -8126.7243   -7249.5182   -27100.045     -1837.68   -707.62228    -978.3935    73.040765    63.255159    36.441059   -14158.762   -310479.53 
     160    766.68448    168183.61      73.0145    73.014501    36.427955          120   -18125.169   -16922.402   -61471.431   -1571.7293   -1239.5298   -1166.9353      73.0145    63.232412    36.427955   -32173.001   -310642.17 
     170    757.34473    168007.22    72.988965    72.988966    36.415216          120   -22999.687   -21178.197   -91610.038   -862.81087   -2193.9266    -1309.809    72.988965    63.210299    36.415216   -45262.641    -310673.8 
     180    686.01244    167827.95    72.962996    72.962997    36.402259          120   -20846.562   -18818.714   -109727.88   -910.88031   -2532.0311   -1606.5158    72.962996    63.187809    36.402259   -49797.719   -310584.89 
     190    656.58598    167642.66    72.936134    72.936135    36.388858          120   -16602.058   -14874.661   -109683.94   -298.78017   -2299.5577   -1554.3147    72.936134    63.164546    36.388858   -47053.554   -310571.08 
     200    690.48281    167452.14    72.908494    72.908495    36.375068          120   -11981.487   -11393.065   -91715.291   -670.15935   -2163.6365   -1487.1434    72.908494    63.140609    36.375068   -38363.281   -310678.84 
     210    701.54795    167259.97    72.880593    72.880593    36.361147          120   -7126.8142   -6662.2186   -69071.363   -955.63145   -1667.1342   -1393.3012    72.880593    63.116445    36.361147   -27620.132   -310744.27 
     220    684.17037    167070.59    72.853077    72.853078    36.347419          120   -4236.1118   -2793.9279   -50599.781   -905.97674   -1171.2263   -2407.5072    72.853077    63.092616    36.347419    -19209.94   -310752.94 
     230    662.93123    166887.26    72.826419    72.826419    36.334119          120   -4205.1002   -3072.1841   -42209.624   -430.92782    -854.2666   -3107.4408    72.826419    63.069529    36.334119   -16495.636   -310752.72 
     240    659.74582    166710.66    72.800722    72.800723    36.321299          120   -6580.7186   -5006.8689   -44911.031   -47.160993   -1842.1539    -2964.591    72.800722    63.047275    36.321299   -18832.873   -310786.31 
     250    668.87716    166539.26    72.775764    72.775765    36.308847          120   -8730.2394   -8271.7426   -57183.008    361.86574   -2051.2387   -3114.3543    72.775764    63.025661    36.308847    -24728.33   -310845.68 
     260    671.01075    166370.19    72.751128    72.751129    36.296556          120   -10218.204   -10861.776   -71536.863    523.82669   -1871.1999   -3441.8314    72.751128    63.004326    36.296556   -30872.281   -310892.56 
     270     650.0117     166200.8    72.726429    72.726429    36.284233          120   -9779.9633   -10804.358   -80361.034    147.26898   -1765.1243   -2655.0203    72.726429    62.982936    36.284233   -33648.452   -310894.87 
     280    627.65064     166030.1    72.701522    72.701522    36.271806          120   -8336.3134   -7733.5289   -80874.207    245.12482    -1292.418    -1623.554    72.701522    62.961365    36.271806   -32314.683   -310892.94 
     290    629.82108    165859.07     72.67655     72.67655    36.259347          120   -4824.3414   -3308.9903   -72771.546    926.08076   -941.35407     -1701.57     72.67655    62.939739    36.259347   -26968.293   -310936.85 
     300    628.51298    165690.31    72.651893    72.651893    36.247046          120   -137.31402    1042.8277   -61074.876    862.96215   -778.95574   -1854.4443    72.651893    62.918385    36.247046   -20056.454   -310973.04 
     310    620.60483    165526.89    72.627998    72.627999    36.235124          120    2917.6516      3752.05   -48383.936    1081.1551   -261.87517   -2044.1779    72.627998    62.897692    36.235124   -13904.745   -310995.26 
     320    608.85223    165371.18    72.605219     72.60522    36.223759          120    4427.4885     4410.828   -39402.762    1434.6374   -1168.8715   -2043.9703    72.605219    62.877965    36.223759   -10188.148   -311008.77 
     330    599.72088    165224.28    72.583713    72.583714     36.21303          120    4073.4664    3624.6733   -37816.351    432.39671      -872.09   -1611.0902    72.583713     62.85934     36.21303   -10039.404   -311026.87 
     340    599.61341    165085.57    72.563396    72.563396    36.202893          120    1746.8791    3215.3437   -44079.767    247.23881   -933.76861   -1539.8959    72.563396    62.841745    36.202893   -13039.182   -311061.78 
     350    594.35409    164953.16    72.543991    72.543991    36.193212          120    1013.6358    2089.1892   -54045.895    302.54319   -567.68448   -2010.9569    72.543991    62.824939    36.193212   -16981.023    -311086.7 
     360     575.8038    164824.89    72.525182    72.525183    36.183828          120    1768.9034    2659.5332   -61783.951   -109.96317    -52.64443   -1866.1032    72.525182    62.808651    36.183828   -19118.505   -311085.12 
     370    564.41635    164699.49    72.506784    72.506785    36.174649          120    3545.1365     3761.543   -63225.725   -83.580174   -929.25299   -2393.4574    72.506784    62.792718    36.174649   -18639.682   -311096.73 
     380    563.48944    164576.93    72.488795    72.488795    36.165674          120    5438.8859    6813.6003   -58803.202   -836.26275   -987.57489   -2471.7713    72.488795    62.777139    36.165674   -15516.905   -311126.97 
     390    561.19793     164458.2    72.471359    72.471359    36.156975          120    7873.6223    8677.4082   -51200.987   -1255.2875   -767.11775   -2335.0964    72.471359    62.762038    36.156975   -11549.986   -311154.59 
     400    551.96112    164344.68     72.45468     72.45468    36.148653          120    10745.555    11398.232    -41831.22   -937.60264   -752.20522   -1764.7615     72.45468    62.747594    36.148653    -6562.478   -311167.59 
     410    544.87076    164237.89    72.438983    72.438984    36.140822          120    11504.435      13745.2   -35793.912   -501.20465   -281.67519    -2229.326    72.438983       62.734    36.140822   -3514.7593   -311183.75 
     420    544.35563    164138.48    72.424365    72.424366    36.133529          120    11206.299    13529.365   -33887.549   -190.08267   -195.63429   -2284.7109    72.424365    62.721341    36.133529   -3050.6283   -311212.36 
     430    537.87617    164045.95    72.410753    72.410753    36.126737          120     10745.39    12232.047   -37069.161   -37.876628   -113.00254   -1273.8872    72.410753    62.709552    36.126737   -4697.2412   -311228.83 
     440     533.6526    163958.93    72.397948    72.397948    36.120349          120    10600.069    10612.151   -42983.808   -24.597668   -263.54221     -982.511    72.397948    62.698462    36.120349    -7257.196   -311250.35 
     450    523.05437    163875.82    72.385713    72.385713    36.114245          120    10490.545    9379.0836   -47940.946    371.44453    196.13837   -1361.4635    72.385713    62.687867    36.114245   -9357.1056   -311258.35 
     460    513.58498    163795.34    72.373862    72.373862    36.108332          120     11248.97    10247.721   -50382.493     1079.598    842.57656   -1066.9508    72.373862    62.677603    36.108332   -9628.6009   -311266.88 
     470    508.26416    163717.12    72.362339    72.362339    36.102583          120      13279.7    12611.286   -48717.983     1461.595    684.70815   -1011.7135    72.362339    62.667624    36.102583    -7608.999   -311283.03 
     480    508.00479    163641.66    72.351219     72.35122    36.097035          120     14462.82    13809.583   -44380.328     1317.082   -285.97534   -140.88941    72.351219    62.657994    36.097035   -5369.3082   -311308.01 
     490    496.55655     163569.7    72.340612    72.340613    36.091743          120     15518.81    15884.256   -37675.334    877.81598    -914.0234   -140.80967    72.340612    62.648809    36.091743   -2090.7557   -311311.09 
     500    491.68571    163502.16    72.330655    72.330655    36.086775          120    15929.409    16858.101   -34292.273   -45.812327   -555.60156   -480.12508    72.330655    62.640185    36.086775   -501.58799   -311326.42 
     510    489.81964     163439.4    72.321398    72.321399    36.082157          120    17125.077    17292.109   -32015.299   -323.80978    724.47496   -399.24344    72.321398    62.632169    36.082157    800.62909   -311346.94 
     520    488.82384    163381.48    72.312854    72.312855    36.077894          120    17052.459    17692.199   -33236.101   -277.34502    644.41915   -756.91945    72.312854    62.624769    36.077894    502.85251   -311368.66 
     530    480.60572    163327.88    72.304946    72.304946    36.073949          120    17014.174    16809.615   -37121.164   -719.13745    65.346164   -448.96664    72.304946    62.617921    36.073949   -1099.1251   -311375.65 
     540    475.13283    163277.62    72.297528    72.297528    36.070248          120    17672.162    17081.465   -40475.927   -465.39423   -201.70144   -921.85676    72.297528    62.611496    36.070248   -1907.4332   -311387.61 
     550    467.39352    163230.04    72.290504    72.290505    36.066744          120    18126.189    18051.316   -41117.864   -185.27195     662.4987   -732.52177    72.290504    62.605414    36.066744   -1646.7864    -311395.1 
     560    462.37683    163185.02    72.283858    72.283858    36.063428          120    18436.696    18990.103   -38961.961    -436.9428    1121.6767   -319.63615    72.283858    62.599658    36.063428   -511.72087   -311406.69 
     570    457.56974    163142.82    72.277626    72.277626    36.060319          120    19838.869    19364.063   -36187.721   -789.65653    788.03211   -166.49283    72.277626    62.594261    36.060319    1005.0703   -311418.61 
     580    455.85637    163103.84    72.271869     72.27187    36.057446          120     21231.26    20499.975   -33120.662   -665.12919    1110.8464    50.226051    72.271869    62.589275    36.057446    2870.1913   -311436.35 
     590    451.79571    163068.61    72.266665    72.266666     36.05485          120    21033.193    21628.154   -30324.431    -537.1008    1448.8044   -479.49354    72.266665    62.584768     36.05485    4112.3052   -311448.48 
     600    442.68425    163037.36    72.262049     72.26205    36.052547          120    21170.198    21482.412   -29989.341   -272.68081    1724.2695   -62.940129    72.262049    62.580771    36.052547    4221.0896   -311450.92 
     610    440.90614    163009.88     72.25799     72.25799    36.050522          120    21378.359    20960.224   -30737.121   -386.55916    1211.1588   -845.28348     72.25799    62.577255    36.050522    3867.1537   -311466.61 
     620    438.13724    162985.75    72.254424    72.254425    36.048743          120    21382.829    20935.995   -33237.395   -409.67295    1032.0101   -789.30502    72.254424    62.574167    36.048743    3027.1429   -311479.83 
     630    437.38192    162964.38    72.251265    72.251266    36.047167          120    20997.429    20266.125   -36007.562   -1247.4186    1217.4924   -939.22792    72.251265    62.571432    36.047167    1751.9973   -311497.07 
     640    429.14981    162945.09    72.248415    72.248415    36.045745          120    21002.075    20699.654   -36630.797   -1135.0521    1055.6494   -1426.2913    72.248415    62.568963    36.045745    1690.3108   -311499.76 
     650    425.19147    162927.69    72.245843    72.245844    36.044462          120    21664.177    21353.365   -36066.193   -80.957443    117.91479   -1440.5786    72.245843    62.566736    36.044462    2317.1164   -311509.35 
     660    419.16515    162912.34    72.243574    72.243574    36.043329          120     22556.81    21726.845   -33094.398    272.48083    610.15536   -1668.0104    72.243574    62.564771    36.043329    3729.7525   -311514.75 
     670    419.62067    162899.49    72.241674    72.241675    36.042382          120    23568.057    22718.593   -30474.597    232.48537    983.10266   -1956.0232    72.241674    62.563126    36.042382    5270.6843   -311531.99 
     680    411.93353    162889.59    72.240211    72.240211    36.041652          120    23920.756      22777.1   -30324.408    243.14482    928.51856   -1021.4015    72.240211    62.561858    36.041652    5457.8161   -311533.86 
     690    408.94651    162882.53    72.239167    72.239168    36.041131          120    23289.843    21785.814   -31554.924   -10.768424    1669.5575   -1146.6408    72.239167    62.560954    36.041131    4506.9109   -311543.92 
     700    406.52372    162877.81     72.23847     72.23847    36.040783          120    23061.689    21906.302   -32910.626   0.77575956    1372.8048   -359.93399     72.23847    62.560351    36.040783    4019.1219   -311554.42 
     710    401.76195    162875.09    72.238067    72.238067    36.040582          120    21964.285    22411.186   -33764.586    423.92882    617.65319   -529.77431    72.238067    62.560002    36.040582    3536.9615   -311560.79 
     720    401.47745    162874.01    72.237907    72.237908    36.040502          120    21380.475    22317.811   -35161.605    801.23472    773.76807   -643.78103    72.237907    62.559863    36.040502    2845.5605   -311575.09 
     730    398.67504    162874.28    72.237947    72.237948    36.040522          120    21715.324    22941.624   -34264.044    1226.3208    1215.1695   -1301.2997    72.237947    62.559898    36.040522    3464.3011   -311583.43 
     740    396.31291    162876.03    72.238206    72.238206    36.040651          120    21895.882     23159.78   -33096.857    1271.2837    1100.0849   -1355.4218    72.238206    62.560122    36.040651    3986.2685   -311592.63 
     750    390.49664    162879.42    72.238707    72.238707    36.040901          120    22553.816    22822.976   -31701.968    751.86039     1384.072   -1456.9362    72.238707    62.560556    36.040901    4558.2746   -311595.12 
     760    391.04454    162884.58     72.23947    72.239471    36.041282          120    23619.066    22846.182    -31934.56    300.40622    1985.0279   -1674.9863     72.23947    62.561217    36.041282     4843.563   -311608.77 
     770     385.5558    162891.58    72.240505    72.240505    36.041798          120    22766.702    23105.756   -31156.253    404.15852    1190.5593   -1691.4466    72.240505    62.562113    36.041798    4905.4018   -311611.22 
     780    383.72811    162900.34      72.2418      72.2418    36.042444          120    22009.127    22565.609   -30736.894    381.58078    1256.6877    -875.4989      72.2418    62.563234    36.042444    4612.6138   -311620.05 
     790    379.02737    162910.66    72.243326    72.243326    36.043206          120    21869.089     23137.36   -31972.091    456.16917    869.97052   -533.65698    72.243326    62.564556    36.043206    4344.7862   -311622.57 
     800    374.27716    162922.34    72.245052    72.245053    36.044067          120    21314.877    22600.486   -33015.276    336.90665     159.3945   -921.50082    72.245052    62.566051    36.044067    3633.3625   -311624.97 
     810     371.6646    162935.01    72.246925    72.246925    36.045001          120    21825.885    20919.487   -34848.857    216.99696    543.35133   -712.13147    72.246925    62.567673    36.045001    2632.1718   -311631.14 
     820    372.35918    162948.24    72.248881    72.248881    36.045977          120    21503.114     21146.47   -34840.998   -37.236372     1059.995    -346.5263    72.248881    62.569367    36.045977     2602.862   -311643.58 
     830    369.04396    162961.99    72.250912    72.250913    36.046991          120    21808.816    21395.433   -34277.052   -310.34244    1196.5879   -573.34933    72.250912    62.571126    36.046991    2975.7325   -311647.67 
     840    366.26314    162976.39    72.253041    72.253041    36.048053          120    21934.758    21223.405   -33217.737   -616.48659     701.0266   -1043.9036    72.253041    62.572969    36.048053    3313.4754   -311652.64 
     850    364.81285    162991.55     72.25528    72.255281     36.04917          120    21353.901    21472.046   -32212.968    126.81732    418.56883   -1033.9765     72.25528    62.574909     36.04917    3537.6598   -311659.71 
     860    361.64983    163007.53    72.257642    72.257643    36.050349          120    21536.583    21218.274   -31761.594    1056.7107     644.6164   -897.89775    72.257642    62.576955    36.050349    3664.4212   -311662.81 
     870    362.18296    163024.35    72.260128    72.260128    36.051588          120    21101.514    20601.565   -32747.675    800.50552    359.79383   -680.04218    72.260128    62.579107    36.051588    2985.1347   -311672.91 
     880    358.87519    163041.72    72.262693    72.262694    36.052869          120    19675.455    20772.402   -32866.499    145.06648   -100.56232    490.14248    72.262693    62.581329    36.052869    2527.1194   -311675.44 
     890    354.22578    163059.41    72.265307    72.265308    36.054173          120    19735.076    20640.334   -33581.905    -158.7574     682.8248   -22.240483    72.265307    62.583592    36.054173    2264.5019   -311674.49 
     900    357.17968    163077.27    72.267945    72.267945    36.055489          120    19435.357    20555.966    -34655.06    437.87079    1277.1229   -733.14842    72.267945    62.585877    36.055489    1778.7541   -311688.37 
     910    353.28445    163095.13    72.270583    72.270584    36.056805          120    19221.815    20732.736   -34382.984    781.65581     708.2514    -1101.543    72.270583    62.588162    36.056805     1857.189   -311688.26 
     920     351.9029    163112.99    72.273221    72.273222    36.058121          120    18837.183    20457.215   -35280.359    885.77923    1088.1966   -323.43379    72.273221    62.590446    36.058121     1338.013   -311692.72 
     930    349.20237    163130.67    72.275833    72.275833    36.059424          120    19620.922    19010.026   -34982.376    850.42912    578.38731   -744.62439    72.275833    62.592708    36.059424    1216.1905   -311694.77 
     940    346.71991    163148.13    72.278411    72.278412     36.06071          120    19954.153    18692.203   -34153.252    1173.5642    285.25003   -175.41459    72.278411    62.594941     36.06071     1497.701   -311696.33 
     950    345.09628    163165.46    72.280969     72.28097    36.061987          120    19519.989    18421.898   -34130.682     1156.707    520.26899    579.44421    72.280969    62.597156    36.061987    1270.4016   -311699.49 
     960    342.12231    163182.63    72.283505    72.283506    36.063252          120    20003.021    19239.112   -33735.124    1034.6898    768.25685    -262.8763    72.283505    62.599353    36.063252    1835.6696   -311698.59 
     970    348.53243    163199.84    72.286046    72.286046    36.064519          120    19476.547    19170.435   -33527.803    818.59753    923.00378   -121.41225    72.286046    62.601553    36.064519    1706.3927   -311716.17 
     980    343.30562    163217.03    72.288585    72.288585    36.065786          120    18950.891    18673.162   -34057.914    1077.5105    1187.5274   -552.79258    72.288585    62.603751    36.065786    1188.7126   -311711.05 
     990    341.61279    163234.05    72.291097    72.291097    36.067039          120     19783.12    18721.391   -34598.787      1203.22    1969.0133   -1057.3884    72.291097    62.605927    36.067039    1301.9078   -311712.67 
    1000    337.55084    163250.93    72.293589    72.293589    36.068283          120    20721.178    18941.448   -34883.979    888.06511    1373.5889     -1232.93    72.293589    62.608085    36.068283    1592.8824   -311708.66 
Loop time of 301.798 on 1 procs for 1000 steps with 14848 atoms

Performance: 0.286 ns/day, 83.833 hours/ns, 3.313 timesteps/s
100.0% CPU use with 1 MPI tasks x no OpenMP threads

MPI task timing breakdown:
Section |  min time  |  avg time  |  max time  |%varavg| %total
---------------------------------------------------------------
Pair    | 235.71     | 235.71     | 235.71     |   0.0 | 78.10
Bond    | 0.00015521 | 0.00015521 | 0.00015521 |   0.0 |  0.00
Kspace  | 10.729     | 10.729     | 10.729     |   0.0 |  3.55
Neigh   | 48.737     | 48.737     | 48.737     |   0.0 | 16.15
Comm    | 0.37754    | 0.37754    | 0.37754    |   0.0 |  0.13
Output  | 0.010371   | 0.010371   | 0.010371   |   0.0 |  0.00
Modify  | 6.1351     | 6.1351     | 6.1351     |   0.0 |  2.03
Other   |            | 0.09479    |            |       |  0.03

Nlocal:    14848 ave 14848 max 14848 min
Histogram: 1 0 0 0 0 0 0 0 0 0
Nghost:    46851 ave 46851 max 46851 min
Histogram: 1 0 0 0 0 0 0 0 0 0
Neighs:    1.00814e+07 ave 1.00814e+07 max 1.00814e+07 min
Histogram: 1 0 0 0 0 0 0 0 0 0

Total # of neighbors = 10081409
Ave neighs/atom = 678.974
Ave special neighs/atom = 0
Neighbor list builds = 178
Dangerous builds = 0
PPPM initialization ...
  using 12-bit tables for long-range coulomb (../kspace.cpp:321)
  G vector (1/distance) = 0.202602
  grid = 36 50 24
  stencil order = 5
  estimated absolute RMS force accuracy = 0.000997798
  estimated relative force accuracy = 6.92933e-05
  using double precision FFTs
  3d grid and FFT values/proc = 65395 43200
Setting up Verlet run ...
  Unit style    : metal
  Current step  : 0
  Time step     : 0.001
Per MPI rank memory allocation (min/avg/max) = 151.5 | 151.5 | 151.5 Mbytes
Step Temp Volume Cella Cellb Cellc CellGamma Pxx Pyy Pzz Pxy Pxz Pyz Lx Ly Lz Press PotEng 
       0    337.55084    163250.93    72.293589    72.293589    36.068283          120    20732.604    18953.808   -34878.053    888.66458    1373.6096   -1232.8655    72.293589    62.608085    36.068283    1602.7868   -311708.49 
      10    339.97114    163267.78    72.296076    72.296077    36.069524          120    20454.822    18958.635   -34351.247    437.49613    1406.3754   -1131.5281    72.296076    62.610239    36.069524    1687.4034   -311716.07 
      20    341.02655    163284.67    72.298569     72.29857    36.070767          120    21046.057    19154.427   -34613.393    206.03326     1137.071   -645.41117    72.298569    62.612398    36.070767    1862.3637   -311721.39 
      30    337.59892    163301.66    72.301076    72.301076    36.072018          120    20063.308    19199.133   -35319.123    710.85934    710.71897    -393.4052    72.301076    62.614569    36.072018    1314.4394   -311717.67 
      40    341.51881    163318.51    72.303563    72.303563    36.073259          120    18665.025    18665.123   -35743.525    1562.8042    910.32861   -1073.5872    72.303563    62.616723    36.073259    528.87448   -311728.01 
      50    342.38082    163334.95    72.305989     72.30599    36.074469          120    18865.699    18457.491   -35509.462    1784.7264    569.21053   -1221.4295    72.305989    62.618824    36.074469    604.57589   -311731.29 
      60    339.41395    163350.97    72.308353    72.308353    36.075649          120    18822.845    17931.143   -35604.841    1698.9054     412.7402   -687.77414    72.308353    62.620871    36.075649    383.04888   -311727.81 
      70    334.29064    163366.52    72.310647    72.310648    36.076793          120     19143.85    18042.156   -36290.727    1221.9306    1221.7587   -960.16812    72.310647    62.622858    36.076793     298.4266   -311718.67 
      80    335.60282    163381.56    72.312866    72.312866      36.0779          120    18831.716    17367.053   -36525.737    820.68816    1739.2486   -1451.5384    72.312866    62.624779      36.0779   -108.98936   -311721.77 
      90    336.47462    163395.95    72.314989     72.31499     36.07896          120    18419.223    17851.526    -36877.22    439.04042    2024.7463   -1040.6284    72.314989    62.626618     36.07896   -202.15705    -311723.5 
     100    336.68848    163409.69    72.317016    72.317017    36.079971          120    18103.086    18807.101   -37379.127    348.63276    1579.0896    -1153.743    72.317016    62.628374    36.079971   -156.31333   -311724.03 
     110    333.89631    163422.81    72.318951    72.318952    36.080936          120    17606.931      18350.7   -37527.624    620.12303    1446.5754   -1492.1797    72.318951    62.630049    36.080936   -523.33069    -311717.5 
     120    339.15806    163435.18    72.320776    72.320776    36.081847          120    16929.095    18152.848   -37616.277    1012.7191    1405.9959    -2060.194    72.320776     62.63163    36.081847   -844.77797   -311726.28 
     130    339.70744    163446.72    72.322479    72.322479    36.082696          120    17377.265    18091.531   -37269.058    1190.3738      1281.99    -1359.729    72.322479    62.633104    36.082696   -600.08723   -311725.62 
     140    341.21723    163457.55    72.324075    72.324075    36.083493          120    17956.501    17536.301   -37174.093    1056.0295    990.44187   -1173.0809    72.324075    62.634487    36.083493   -560.43005   -311726.72 
     150    338.81451    163467.74    72.325578    72.325578    36.084242          120    18430.692     17828.95   -35863.508    729.85157     642.0628   -807.94531    72.325578    62.635788    36.084242    132.04434   -311719.71 
     160    340.28549    163477.58    72.327029    72.327029    36.084966          120    17487.698    19275.767   -35058.393    38.878596    45.847585   -1203.0205    72.327029    62.637045    36.084966     568.3572   -311719.46 
     170    341.47632    163487.25    72.328456    72.328457    36.085678          120    17299.304    18700.931   -35941.679     530.7899   -147.95403   -1668.2177    72.328456    62.638281    36.085678    19.518597   -311717.96 
     180    345.49652    163496.58    72.329832    72.329832    36.086365          120    17752.334    17639.112   -36907.734    666.95391   -131.90517   -1266.0402    72.329832    62.639472    36.086365   -505.42939   -311722.23 
     190     343.9323    163505.34    72.331124    72.331124    36.087009          120    17028.056    17614.496    -37118.03    794.04968    391.03556   -1487.7209    72.331124    62.640591    36.087009   -825.15947   -311715.72 
     200     345.0969    163513.43    72.332315    72.332316    36.087604          120    17303.434    17121.455   -36920.875    1145.4245    731.64666   -1699.4077    72.332315    62.641623    36.087604   -831.99558   -311714.58 
     210     346.0248    163520.86    72.333412    72.333413    36.088151          120    17978.162    17592.468   -36860.154    1237.5763    611.52006   -1848.9375    72.333412    62.642573    36.088151   -429.84118   -311711.97 
     220    345.04129    163527.81    72.334437    72.334437    36.088662          120    17233.498    17963.822   -36571.359    1582.5141    1121.8864   -1670.5876    72.334437     62.64346    36.088662     -458.013   -311706.17 
     230     347.2993     163534.3    72.335393    72.335393    36.089139          120    16507.715    18605.933   -36849.852     1198.414    1480.8814   -1311.2679    72.335393    62.644288    36.089139    -578.7347   -311706.04 
     240    348.07929    163540.27    72.336273    72.336273    36.089578          120    17292.657    17436.098   -37476.377    579.77549    903.49063   -712.83584    72.336273    62.645051    36.089578   -915.87374   -311703.17 
     250    351.01138    163545.64    72.337065    72.337065    36.089973          120    17174.915    17832.032   -36878.906    294.13602    1465.7457   -855.62089    72.337065    62.645736    36.089973   -623.98628    -311704.6 
     260     350.9561    163550.55    72.337789    72.337789    36.090335          120    17596.112    18421.765   -36399.022    603.19622    1400.5625    -1160.401    72.337789    62.646363    36.090335   -127.04819   -311700.47 
     270    352.24994    163555.21    72.338476    72.338477    36.090678          120     18247.83    17130.794   -35848.497    52.152114    921.43941   -925.53506    72.338476    62.646959    36.090678   -156.62439   -311698.94 
     280    355.56228    163559.62    72.339126    72.339127    36.091002          120    17417.425    16625.874   -36408.915    294.97062    849.62578   -787.88238    72.339126    62.647522    36.091002   -788.53848   -311701.08 
     290    353.20858    163563.53    72.339702    72.339703    36.091289          120    15988.058    16639.675    -37045.18    606.42306    426.78278   -921.12029    72.339702    62.648021    36.091289   -1472.4827   -311692.94 
     300    355.17392    163566.69    72.340169     72.34017    36.091522          120    16103.486    16167.319   -36919.569    958.02966    1560.4872    -110.7094    72.340169    62.648425    36.091522    -1549.588   -311693.08 
     310    356.66417    163569.08    72.340521    72.340522    36.091698          120    16528.132    16233.056   -36375.679    769.96028    1738.4064   -436.23749    72.340521     62.64873    36.091698     -1204.83   -311693.05 
     320    356.84252    163570.89    72.340788    72.340789    36.091831          120    16776.414    17492.708    -34911.93    684.76241    1340.7893   -1184.6912    72.340788    62.648961    36.091831   -214.26945   -311689.86 
     330    358.32571    163572.49    72.341023    72.341023    36.091948          120    17287.011    17318.902   -35905.461    210.45227    948.98375   -1468.4558    72.341023    62.649164    36.091948   -433.18277   -311690.25 
     340    356.66408    163573.81    72.341218    72.341218    36.092046          120    17052.345    16104.965   -36499.878    528.45376    461.21087   -1516.2808    72.341218    62.649333    36.092046   -1114.1891   -311685.07 
     350    360.71541    163574.63    72.341339     72.34134    36.092106          120    17046.756    16672.973   -36201.024    1324.8249    1206.1582   -1392.9139    72.341339    62.649438    36.092106   -827.09846   -311690.61 
     360    358.73279    163575.07    72.341404    72.341405    36.092138          120    17140.478    17410.418   -35719.842     1979.254    1094.3102   -849.69831    72.341404    62.649494    36.092138   -389.64859   -311685.09 
     370    360.97181    163575.29    72.341436    72.341437    36.092154          120    17350.068     16476.58   -35832.122    1694.7503    500.86029   -94.118001    72.341436    62.649522    36.092154   -668.49122    -311688.2 
     380     360.9496    163575.22    72.341426    72.341427    36.092149          120    17628.823    17293.289   -36526.855    1468.9696    754.61999   -364.50035    72.341426    62.649513    36.092149   -534.91423   -311687.34 
     390    357.12301    163574.95    72.341386    72.341386    36.092129          120    18300.578    18055.426   -36021.735    789.10298     1471.633   -375.69727    72.341386    62.649479    36.092129    111.42289   -311679.03 
     400    363.54957    163574.71    72.341351    72.341351    36.092112          120    18465.399     17704.78   -35488.687    219.77731    1524.5679    258.74773    72.341351    62.649448    36.092112    227.16416   -311691.68 
     410    359.31902    163574.56    72.341328    72.341329    36.092101          120    18835.938    17251.285   -36299.291    644.59274    1274.0171   -358.01758    72.341328    62.649429    36.092101   -70.689169   -311683.96 
     420    359.82233     163574.4    72.341306    72.341306    36.092089          120    18311.611    17621.336    -35687.07    420.08528    718.18124     -963.622    72.341306    62.649409    36.092089    81.958823    -311685.8 
     430    359.61824    163574.27    72.341286    72.341286    36.092079          120    18035.276    18212.007   -36288.332   -2.2012643     881.0994   -909.32395    72.341286    62.649392    36.092079   -13.683026   -311686.93 
     440    355.63333    163574.13    72.341266    72.341266    36.092069          120    18042.648    17909.386   -36810.724     -264.739    1157.9923     -1560.48    72.341266    62.649374    36.092069   -286.22986    -311680.4 
     450    357.20223    163573.88    72.341229    72.341229    36.092051          120    17765.425    17494.245   -36735.646     342.0387     1447.893    -1721.141    72.341229    62.649342    36.092051    -491.9919   -311684.78 
     460     358.3491     163573.4    72.341158    72.341158    36.092015          120    17116.978    16737.407   -36187.385    335.02719    2045.6928   -1347.7919    72.341158    62.649281    36.092015    -777.6667   -311689.39 
     470    359.42438    163572.61    72.341042    72.341042    36.091958          120    18260.049    16862.891   -36827.342    281.64825    1255.4455   -479.06509    72.341042    62.649181    36.091958   -568.13419   -311693.43 
     480    356.30235    163571.61    72.340893    72.340894    36.091884          120    18334.238    17922.144   -36386.225    345.52599    887.54433   -387.75044    72.340893    62.649052    36.091884   -43.280903   -311690.65 
     490    354.43466    163570.62    72.340748    72.340749    36.091811          120     18087.01    19264.381   -35539.914    446.91434    1500.4013   -335.67797    72.340748    62.648926    36.091811    603.82567   -311689.97 
     500    358.15329    163569.89     72.34064    72.340641    36.091757          120    17998.908    18781.087   -35826.877    1071.3322    1840.7512   -432.78809     72.34064    62.648833    36.091757    317.70587   -311700.16 
     510    358.71389    163569.35     72.34056    72.340561    36.091717          120    18159.906    18737.686   -36058.832    818.92803    961.47456   -319.37495     72.34056    62.648764    36.091717    279.58672   -311704.35 
     520    354.58353    163568.93    72.340498    72.340499    36.091687          120    18318.396    18253.427   -36700.684    980.44556     947.8935   -870.05429    72.340498     62.64871    36.091687   -42.953789   -311699.89 
     530    353.87059    163568.51    72.340437    72.340438    36.091656          120    18643.239    17276.483   -35757.234     944.2936    1323.0728   -572.77166    72.340437    62.648657    36.091656    54.162836   -311702.07 
     540    351.81913    163568.14    72.340383    72.340383    36.091629          120    18363.222    17772.078   -35508.943    761.16789    1096.5638   -795.27334    72.340383     62.64861    36.091629    208.78535   -311701.53 
     550    350.33254    163567.87    72.340342    72.340342    36.091608          120    18163.541     17955.35   -35479.051    567.45919    1690.2332   -1258.2375    72.340342    62.648574    36.091608    213.27991   -311702.82 
     560    351.32143    163567.69    72.340316    72.340317    36.091596          120    17517.834    19132.392   -35730.722    568.82771    1785.5967   -683.64839    72.340316    62.648552    36.091596    306.50139   -311708.58 
     570    352.49763    163567.63    72.340307    72.340308    36.091591          120    17298.635    18473.146   -36559.664    622.67547    1501.2514   -1019.3656    72.340307    62.648545    36.091591   -262.62765   -311714.73 
     580    347.27285    163567.45     72.34028    72.340281    36.091578          120    16733.226     17584.53   -37322.662    260.30437    1490.5415   -1199.9854     72.34028    62.648521    36.091578   -1001.6351   -311708.69 
     590    346.43388    163566.87    72.340196    72.340196    36.091535          120    17410.321    17486.277   -37127.322    742.99589    1613.1026   -290.38301    72.340196    62.648448    36.091535   -743.57456   -311710.56 
     600    349.17595    163566.01    72.340068    72.340069    36.091472          120    17662.831    17758.386    -35602.92    535.59958    2091.8494   -350.83363    72.340068    62.648337    36.091472   -60.567858   -311719.58 
     610    346.83671     163565.1    72.339934    72.339935    36.091405          120    16841.585    18585.968   -36030.088    698.18166    2172.8156   -1094.3301    72.339934    62.648222    36.091405   -200.84522   -311718.78 
     620    346.70246    163564.13    72.339791    72.339791    36.091334          120    16967.522    18010.729   -36040.298    1426.3718    1056.0638   -1530.9191    72.339791    62.648097    36.091334   -354.01545   -311721.12 
     630    344.03396    163563.04    72.339631    72.339631    36.091254          120    17772.433    17738.872   -36572.022    1084.5178    852.02111   -1093.6272    72.339631    62.647958    36.091254   -353.57221   -311719.28 
     640    344.02206     163561.8    72.339447    72.339448    36.091162          120    17489.453    17620.954   -37753.559    88.380744     65.01559   -656.69675    72.339447      62.6478    36.091162   -881.05058   -311722.16 
     650    342.24956    163560.23    72.339216    72.339216    36.091047          120    17235.903    18181.546   -37069.106    584.10873    436.15475   -664.95195    72.339216    62.647599    36.091047   -550.55214   -311721.28 
     660    347.59588    163558.48    72.338958    72.338958    36.090918          120    18301.659    18728.966    -36130.53    608.01781    793.13572   -1104.0687    72.338958    62.647376    36.090918    300.03194   -311733.79 
     670    342.76179     163556.9    72.338725    72.338726    36.090802          120    18759.257     19360.66   -36072.088      178.279    320.28143   -322.29261    72.338725    62.647175    36.090802    682.60978   -311726.71 
     680    342.56567    163555.65    72.338541    72.338542     36.09071          120    18792.116    18943.395   -36685.588    655.08976    1457.4974   -682.72229    72.338541    62.647015     36.09071    349.97431   -311728.22 
     690    340.74501     163554.6    72.338386    72.338387    36.090633          120    18357.047    17983.771   -36230.935    921.43146    1358.6146   -897.74613    72.338386    62.646881    36.090633     36.62758   -311726.08 
     700    340.80551    163553.58    72.338236    72.338237    36.090558          120    17908.158    17487.829   -36850.428    480.72923    671.82474     -566.008    72.338236    62.646751    36.090558   -484.81354   -311727.07 
     710    342.27097    163552.39    72.338061    72.338061     36.09047          120    17256.024    17304.558   -36455.844   -125.94206     330.0583   -696.26401    72.338061    62.646599     36.09047    -631.7538   -311731.32 
     720    344.24824    163550.97     72.33785    72.337851    36.090365          120    17770.156    17038.796   -36688.277    110.15273   -572.98562   -961.86089     72.33785    62.646417    36.090365   -626.44171   -311735.74 
     730    341.05298     163549.3    72.337605    72.337606    36.090243          120    17583.271    16956.854   -37393.298   -90.305195   -291.42693   -1540.3276    72.337605    62.646205    36.090243   -951.05778   -311730.16 
     740    343.25752     163547.3    72.337309     72.33731    36.090095          120    18007.386     17771.76   -37795.732    233.53151    724.96952   -1338.1528    72.337309    62.645948    36.090095   -672.19509   -311734.81 
     750    342.06462    163545.08    72.336982    72.336983    36.089932          120    19195.671    18256.904   -36503.906    748.75288    433.52177   -1692.1898    72.336982    62.645665    36.089932    316.22275   -311732.14 
     760    340.76212    163543.03    72.336681    72.336681    36.089782          120    19890.582    18361.559   -36061.103    457.76481     353.0602   -1701.0835    72.336681    62.645404    36.089782    730.34603   -311728.55 
     770     341.9058    163541.34    72.336431    72.336432    36.089657          120    19150.841    19134.832   -36792.869   -10.670545     572.0127   -1031.0378    72.336431    62.645188    36.089657    497.60135   -311729.84 
     780    345.40887    163539.92    72.336222    72.336223    36.089553          120    19380.514    18028.771   -36301.547    478.34659    1141.4472   -1253.5183    72.336222    62.645007    36.089553    369.24615   -311734.99 
     790    343.09541    163538.72    72.336046    72.336046    36.089465          120    18968.553    18517.411   -35959.764    589.81748    926.40499   -1234.2003    72.336046    62.644854    36.089465    508.73347   -311728.99 
     800    344.41352    163537.78    72.335906    72.335907    36.089396          120    18856.246     18772.06   -34898.242    624.62811    1180.4566   -1087.6093    72.335906    62.644733    36.089396    910.02121   -311730.59 
     810     346.9735    163537.27    72.335831    72.335831    36.089358          120     18881.74    18419.604   -33932.837     686.6575    1004.7648   -907.69737    72.335831    62.644668    36.089358    1122.8354   -311733.87 
     820     344.7015     163537.2    72.335821    72.335821    36.089353          120    18733.778    17315.036   -36526.668    816.39055    863.51132   -759.03813    72.335821    62.644659    36.089353   -159.28464   -311727.54 
     830    345.55382    163537.12    72.335809    72.335809    36.089347          120    18102.081    17646.494   -36001.551     1819.422    767.14759   -1830.2572    72.335809    62.644648    36.089347   -84.325331   -311726.93 
     840    346.82378    163536.99     72.33579    72.335791    36.089338          120    17770.292    18290.202   -35862.291    1951.4702    852.79689   -1811.5227     72.33579    62.644633    36.089338    66.067894    -311726.9 
     850    347.39579    163536.87    72.335772    72.335773    36.089329          120    17936.277    17627.329   -37131.423    2061.0225    866.99335   -1959.7377    72.335772    62.644617    36.089329   -522.60565   -311725.37 
     860    348.99273    163536.56    72.335726    72.335727    36.089306          120     18414.55    17250.401   -37220.954    1565.0913    1522.3172   -1567.0308    72.335726    62.644577    36.089306   -518.66764   -311726.29 
     870    348.81755    163536.04     72.33565     72.33565    36.089267          120    18137.499    18441.418   -36786.334    1015.5643    837.57564   -1420.9844     72.33565    62.644511    36.089267    -69.13876   -311723.53 
     880    347.76926    163535.49    72.335568    72.335569    36.089227          120    17887.955    19167.647   -36358.269    874.51039    591.97557   -1397.4476    72.335568     62.64444    36.089227    232.44457   -311718.47 
     890    351.75048    163535.03    72.335501    72.335502    36.089193          120    18338.415     19050.07   -36589.602    304.23828    662.26646   -1137.5184    72.335501    62.644382    36.089193    266.29426   -311723.38 
     900    352.45242    163534.74    72.335457    72.335458    36.089172          120    18697.273    19916.337   -35950.924    254.80427    293.08174   -880.82474    72.335457    62.644344    36.089172    887.56225   -311722.11 
     910    350.94798     163534.8    72.335466    72.335467    36.089176          120    18511.643    19700.824   -36346.178    243.62485     162.2763   -926.90825    72.335466    62.644352    36.089176    622.09634   -311716.52 
     920    352.89658    163535.14    72.335516    72.335517    36.089201          120    18624.639    18709.629   -36350.377    345.33558   -489.02275   -1782.4921    72.335516    62.644396    36.089201    327.96355   -311718.25 
     930    352.17589    163535.62    72.335588    72.335589    36.089237          120    18467.036    19383.486   -36782.195    777.33146   -473.54229    -1377.938    72.335588    62.644458    36.089237    356.10914   -311714.88 
     940    351.21794    163536.26    72.335682    72.335682    36.089283          120    18575.068    19662.378    -36587.47    732.80692    160.13649   -1446.4186    72.335682    62.644538    36.089283    549.99212   -311710.74 
     950    356.09984    163537.09    72.335805    72.335806    36.089345          120    18515.154    19287.342   -36519.872     759.2879    793.49382   -1821.4622    72.335805    62.644646    36.089345    427.54111   -311717.56 
     960    353.66455    163538.12    72.335957    72.335958    36.089421          120    18031.179    19630.722   -35772.207     1200.955    484.84226   -1593.1317    72.335957    62.644777    36.089421    629.89775   -311710.99 
     970    357.59278    163539.35    72.336138    72.336139    36.089511          120    17550.059     18716.57   -36236.773    1440.7841    355.67991   -1177.5087    72.336138    62.644934    36.089511    9.9519871   -311717.15 
     980    358.87559     163540.6    72.336322    72.336323    36.089603          120    17947.227    18993.078   -36104.449    1141.7198    511.64246   -883.24096    72.336322    62.645094    36.089603     278.6187   -311718.08 
     990    357.70776    163541.96    72.336523    72.336523    36.089703          120    18437.817    19576.884   -35094.047    680.74696    65.765382   -1153.5979    72.336523    62.645267    36.089703    973.55134   -311714.62 
    1000    357.26539    163543.69    72.336778    72.336778     36.08983          120    18906.661    19276.127   -34983.167    538.22546   -22.707745   -1433.2978    72.336778    62.645488     36.08983    1066.5403   -311713.18 
    1010    357.30845    163545.86    72.337097    72.337098     36.08999          120    18825.621    19285.526   -34770.722    738.91665   -564.16142   -1121.4117    72.337097    62.645764     36.08999    1113.4752   -311712.63 
    1020    357.35394    163548.43    72.337477    72.337478    36.090179          120    18493.516    19373.776   -35833.132    1012.2787   -575.30555   -773.87748    72.337477    62.646093    36.090179    678.05347   -311712.55 
    1030     355.5243    163551.24    72.337891    72.337892    36.090386          120    18239.297    19379.625   -36695.852    926.60537   -481.47465   -902.28626    72.337891    62.646452    36.090386    307.68989    -311708.7 
    1040     356.9253    163554.13    72.338317    72.338317    36.090598          120    18234.747     19245.46   -36375.733    732.19398    344.07365   -2042.0017    72.338317    62.646821    36.090598    368.15786   -311711.91 
    1050    355.64122    163557.11    72.338756    72.338756    36.090817          120    18966.264    19856.651   -36125.122    172.93259    825.83796   -1963.0576    72.338756    62.647201    36.090817    899.26428   -311710.19 
    1060    354.76214    163560.42    72.339244    72.339245    36.091061          120    19723.617    20301.475   -34682.821    410.36661    717.30921   -1482.4324    72.339244    62.647624    36.091061    1780.7573   -311709.39 
    1070    352.44127    163564.39     72.33983    72.339831    36.091353          120     19791.45    19554.863   -34263.958    393.43978    665.72907   -1643.6509     72.33983    62.648131    36.091353    1694.1184   -311705.58 
    1080    356.81617    163568.96    72.340503    72.340503    36.091689          120    18666.206    19144.487   -35328.955    957.67726     27.49851   -1680.2948    72.340503    62.648714    36.091689    827.24579    -311715.1 
    1090    357.45972     163573.8    72.341217    72.341218    36.092045          120    18085.426    20200.562   -35639.179    859.56074    136.31697   -1522.8839    72.341217    62.649332    36.092045    882.26968    -311717.8 
    1100    356.49438    163578.93    72.341973    72.341974    36.092422          120      19068.2    20923.103   -35922.122    265.61311    277.07108    -1237.895    72.341973    62.649987    36.092422    1356.3935   -311717.43 
    1110    356.97499    163584.51    72.342796    72.342796    36.092833          120    19467.921    20527.477   -35699.803   -191.11913    52.386847   -1094.1838    72.342796    62.650699    36.092833    1431.8651   -311720.13 
    1120    354.70816    163590.52    72.343681    72.343681    36.093274          120    19401.522    19022.606   -37609.967   -109.42868    -723.9976   -1944.0482    72.343681    62.651466    36.093274    271.38736   -311718.21 
    1130     353.8197    163596.56    72.344571    72.344572    36.093719          120    19955.349    18899.635   -38264.309    246.87236   -291.43565   -2150.7927    72.344571    62.652237    36.093719    196.89188   -311718.22 
    1140    354.44415    163602.52     72.34545    72.345451    36.094157          120    18832.542    19077.951   -38073.367    362.61077   -102.16678   -2185.3532     72.34545    62.652999    36.094157   -54.291536      -311722 
    1150    354.72656    163608.35    72.346309     72.34631    36.094586          120    18102.172    19470.553     -36783.6    556.43199   -732.81841   -1352.8581    72.346309    62.653742    36.094586    263.04197    -311725.2 
    1160    353.25353    163614.14    72.347164    72.347164    36.095012          120    18560.051     20132.87     -36251.4    787.39775   -420.60309   -753.11389    72.347164    62.654482    36.095012    813.84045   -311724.82 
    1170    351.06557    163620.15    72.348049     72.34805    36.095454          120    19403.457    20749.882    -35579.87    661.97245    137.45423     -863.825    72.348049    62.655249    36.095454    1524.4897   -311723.05 
    1180    351.38138    163626.64    72.349005    72.349005     36.09593          120    19585.941    19500.146   -34456.173    534.41189    488.45585   -1273.8576    72.349005    62.656077     36.09593    1543.3048   -311726.58 
    1190    350.99708     163633.6    72.350031    72.350031    36.096442          120     18972.27    18945.522   -35040.232    808.94537    653.73526   -2136.3959    72.350031    62.656965    36.096442    959.18645   -311729.22 
    1200    354.25255    163640.84    72.351099    72.351099    36.096975          120    20362.071    19152.422    -36235.74    822.17324    695.13592   -2204.9165    72.351099     62.65789    36.096975    1092.9177    -311738.1 
    1210    349.00768    163648.39     72.35221    72.352211     36.09753          120    20407.003    19670.225   -37173.118    883.38767    521.61122   -1913.9834     72.35221    62.658853     36.09753    968.03696   -311730.42 
    1220    345.88604    163656.18    72.353358    72.353359    36.098102          120    19229.342    20239.608   -36304.503    195.01901    16.353649   -1676.8122    72.353358    62.659847    36.098102    1054.8155   -311727.48 
    1230    347.85939    163664.19     72.35454     72.35454    36.098692          120    18308.876    19166.793   -35878.048   -78.677787   -745.21446   -1589.7323     72.35454     62.66087    36.098692    532.54028    -311733.8 
    1240    346.69437    163672.24    72.355726    72.355726    36.099284          120    18428.109    18181.758   -36484.714    237.71964   -903.34596   -1302.8808    72.355726    62.661897    36.099284    41.717742   -311734.26 
    1250    346.27119    163680.11    72.356886    72.356886    36.099862          120    18462.294     17929.02   -37198.797    343.29016   -206.67103   -1807.2812    72.356886    62.662902    36.099862   -269.16077   -311736.08 
    1260    344.91062    163687.68    72.358001    72.358002    36.100419          120    18658.591    17781.071   -37154.783    794.61839    294.13551   -1604.4128    72.358001    62.663868    36.100419   -238.37344   -311735.32 
    1270    343.55464    163694.95    72.359071    72.359072    36.100953          120    18529.388     17400.34    -36929.81    1196.3124     628.5032   -1310.5403    72.359071    62.664795    36.100953   -333.36089   -311734.74 
    1280    343.07455    163701.91    72.360097    72.360097    36.101465          120    18364.164    18490.452   -36803.434    389.72386     559.9812   -1887.3701    72.360097    62.665683    36.101465    17.060321   -311735.68 
    1290    344.43114    163708.72      72.3611    72.361101    36.101965          120    18522.608    19744.714   -36170.519    361.74191   -10.866845   -1946.2938      72.3611    62.666552    36.101965    698.93408   -311739.73 
    1300    345.05042    163715.63    72.362119    72.362119    36.102473          120     18458.08    19647.724   -35722.599    191.33644    204.55682   -877.43271    72.362119    62.667434    36.102473    794.40206   -311742.35 
    1310    344.26778    163722.72    72.363163    72.363164    36.102994          120    18837.399    19485.402   -35933.874    581.90948    250.63754    -944.2366    72.363163    62.668338    36.102994    796.30882   -311741.99 
    1320    345.34149    163729.97    72.364231    72.364232    36.103527          120    19099.331    19174.619   -36523.129    477.08805    122.30317   -1230.9457    72.364231    62.669263    36.103527    583.60685   -311744.86 
    1330    343.22648    163737.27    72.365307    72.365308    36.104064          120    19114.935    18406.455   -37322.026    1054.5838   -187.11485   -1262.2992    72.365307    62.670195    36.104064    66.454343   -311741.45 
    1340     341.5973    163744.42     72.36636     72.36636    36.104589          120    18158.359    18447.944   -37640.843    1342.7375   -741.41475   -1685.4161     72.36636    62.671107    36.104589   -344.84654   -311739.71 
    1350    342.09673    163751.24    72.367366    72.367366    36.105091          120    18124.304     17868.19   -37288.863    1071.8573   -1303.1544   -1477.4027    72.367366    62.671978    36.105091   -432.12301   -311740.71 
    1360    345.38542    163757.72    72.368319     72.36832    36.105567          120    18136.258    17995.529   -37647.908    588.61075   -899.50938   -2100.7682    72.368319    62.672803    36.105567   -505.37352   -311746.81 
    1370    344.49841    163763.82    72.369218    72.369219    36.106015          120    17481.536      18402.7   -36787.275   -92.399338   -196.23428   -2107.0116    72.369218    62.673582    36.106015   -301.01306    -311744.2 
    1380    342.14034     163769.6     72.37007    72.370071     36.10644          120    17773.384    17372.733   -37193.126    237.77983   -582.84537    -1928.581     72.37007     62.67432     36.10644   -682.33607   -311739.67 
    1390    344.61495    163774.97    72.370861    72.370861    36.106835          120    17632.736     17785.71   -37495.085    684.05317   -1018.8515   -1707.8804    72.370861    62.675005    36.106835   -692.21307   -311743.93 
    1400    345.76232     163779.9    72.371587    72.371588    36.107197          120    17268.386    18569.778   -38384.158     1036.582   -1399.3565   -1381.1781    72.371587    62.675634    36.107197    -848.6645   -311745.02 
    1410    342.21234    163784.31    72.372236    72.372237    36.107521          120    16751.899    18230.306   -39325.836    876.71511   -1034.5685   -1044.7961    72.372236    62.676196    36.107521   -1447.8769   -311736.93 
    1420    343.26204    163787.98    72.372776    72.372777     36.10779          120    16297.593    17712.546   -39181.516    804.62453   -1422.4977   -877.64175    72.372776    62.676663     36.10779   -1723.7922   -311737.61 
    1430     345.1552    163790.79     72.37319    72.373191    36.107997          120    15872.491    18059.845   -39576.572    338.68322   -732.41681   -957.05507     72.37319    62.677022    36.107997   -1881.4123    -311739.8 
    1440    345.51334    163792.72    72.373475    72.373476    36.108139          120    16132.708     18013.59   -38252.636    571.11969   -358.96211   -1530.2371    72.373475    62.677269    36.108139   -1368.7793   -311738.85 
    1450    344.11757    163793.97    72.373659    72.373659    36.108231          120    15876.649    17589.534   -37384.466    1002.1406   -305.06217   -1425.3893    72.373659    62.677428    36.108231   -1306.0943   -311735.04 
    1460    343.60528    163794.62    72.373755    72.373755    36.108279          120    15884.631     17744.04   -36300.019    1266.8162   -307.25815    -2100.565    72.373755    62.677511    36.108279   -890.44962   -311731.23 
    1470    348.52566    163794.85    72.373789     72.37379    36.108296          120    16195.474    18088.962   -36339.613    1541.6604   -573.72217   -1496.6531    72.373789     62.67754    36.108296   -685.05915   -311738.32 
    1480     348.7009    163794.76    72.373776    72.373777    36.108289          120    15754.139    18509.867   -37112.347    1309.4957   -518.41881   -988.91255    72.373776    62.677529    36.108289   -949.44706   -311736.04 
    1490    348.98394    163794.28    72.373706    72.373706    36.108254          120    16443.236    17625.347   -36269.562    308.63529   -967.61343   -987.80316    72.373706    62.677468    36.108254   -733.65959   -311734.21 
    1500    349.63876    163793.48    72.373587    72.373587    36.108195          120    17635.855    17640.868   -37418.542    170.22078   -1104.4674   -1419.4473    72.373587    62.677365    36.108195   -713.93954   -311732.82 
    1510    349.62576    163792.39    72.373426    72.373427    36.108115          120    18422.765    17844.343   -38246.445    489.08125   -388.25172   -1955.7775    72.373426    62.677226    36.108115     -659.779   -311729.84 
    1520    350.97816    163791.02    72.373224    72.373225    36.108014          120      17872.5    17868.272   -38063.617    953.39969    178.09719   -1314.1445    72.373224    62.677051    36.108014   -774.28169   -311730.09 
    1530    350.98518    163789.33    72.372976    72.372977     36.10789          120    17054.933    17904.312    -37312.57    1625.1669   -571.88584    -1300.565    72.372976    62.676837     36.10789   -784.44142   -311727.59 
    1540    350.23968    163787.35    72.372684    72.372685    36.107744          120    16653.658    18046.151   -36937.632    2021.0878   -1071.0952    -1536.844    72.372684    62.676584    36.107744   -745.94079   -311723.81 
    1550    348.96304    163785.07    72.372348    72.372348    36.107577          120      17179.9    18477.406   -37343.303    1063.1175   -471.15786   -919.29347    72.372348    62.676292    36.107577   -561.99911   -311718.52 
    1560    353.90801    163782.63    72.371989    72.371989    36.107397          120    18650.064    19214.634   -35772.995    510.47311    487.51329   -1309.5372    72.371989    62.675981    36.107397    697.23436   -311725.19 
    1570    354.90449    163780.48    72.371673    72.371673     36.10724          120    18140.332    19108.616   -35184.128     920.1519    653.09517   -1597.1164    72.371673    62.675708     36.10724     688.2736    -311725.2 
    1580    354.16044    163778.69    72.371409    72.371409    36.107108          120    17340.626    19224.102   -35865.414    1007.4757    362.98773   -1475.9869    72.371409    62.675479    36.107108    233.10493   -311721.73 
    1590    354.75204    163777.04    72.371166    72.371167    36.106987          120    16898.774    19451.833   -37708.719    1161.1775   -372.67242    -2222.906    72.371166    62.675269    36.106987   -452.70388   -311721.91 
    1600    354.48742    163775.27    72.370905    72.370906    36.106857          120    16996.535    18863.465   -36716.427    1105.2258   -697.97175   -2344.5757    72.370905    62.675043    36.106857   -285.47553    -311718.6 
    1610    355.84968    163773.41    72.370631    72.370631     36.10672          120    17614.101    18129.233   -35984.784    836.75961    189.82418   -1318.8026    72.370631    62.674805     36.10672   -80.483725   -311719.45 
    1620    359.00031    163771.56    72.370359    72.370359    36.106584          120    18996.784    18243.582   -36671.935    698.74549    185.70846   -1294.0266    72.370359     62.67457    36.106584    189.47701   -311724.29 
    1630    353.35694    163769.86    72.370108    72.370109    36.106459          120    19260.164    19054.293   -36343.423    1022.5264     -45.0523   -820.37364    72.370108    62.674353    36.106459     657.0114   -311711.98 
    1640    357.62728    163768.45      72.3699      72.3699    36.106355          120    19425.244    18605.991    -37027.34    1246.7201   -454.66055   -1587.4064      72.3699    62.674172    36.106355    334.63159   -311719.74 
    1650    356.49555    163767.25    72.369724    72.369725    36.106268          120     19390.85    19455.166   -36056.509    692.49738   -442.96674   -2342.0459    72.369724     62.67402    36.106268      929.836   -311716.89 
    1660    357.96462    163766.49    72.369612    72.369613    36.106212          120     20023.28    19514.108   -35205.158    1077.0886    -828.3105   -1184.3573    72.369612    62.673923    36.106212    1444.0767   -311719.21 
    1670    357.67508    163766.39    72.369597    72.369598    36.106204          120    19980.335    20286.187   -35422.536    590.71803   -529.16827   -1299.3137    72.369597    62.673911    36.106204     1614.662   -311718.58 
    1680    356.28691    163766.97    72.369682    72.369683    36.106247          120    19684.199    19675.094   -36464.574    432.79064    502.38541   -1614.8184    72.369682    62.673984    36.106247    964.90618   -311716.69 
    1690     358.4836    163767.96    72.369828    72.369829     36.10632          120    18997.234    19366.219   -37043.605     20.93427     64.61605   -2399.3504    72.369828    62.674111     36.10632    439.94922   -311721.51 
    1700    356.59269    163769.16    72.370004    72.370005    36.106407          120    18739.567    18939.856   -36675.625    612.51413    240.51509   -1872.3571    72.370004    62.674263    36.106407     334.5992   -311718.73 
    1710    353.72507    163770.48    72.370199      72.3702    36.106505          120    18984.105    18633.839   -36780.223    1088.9339    129.97045   -1995.4252    72.370199    62.674431    36.106505    279.24013   -311714.77 
    1720    356.29173     163771.9    72.370409    72.370409    36.106609          120    18452.829    19716.801   -36866.693    953.87356   -349.42033   -1742.7712    72.370409    62.674613    36.106609    434.31232   -311721.31 
    1730    356.18791    163773.45    72.370636    72.370637    36.106723          120    17482.415    19121.666   -37350.265    743.43075    29.810917   -2185.5111    72.370636     62.67481    36.106723   -248.72775   -311722.61 
    1740    357.00436    163774.88    72.370847    72.370848    36.106828          120     17618.71    19024.961    -37275.64    -116.9315   -309.83377   -2700.8107    72.370847    62.674993    36.106828   -210.65631   -311725.67 
    1750    355.33952    163776.21    72.371043    72.371044    36.106926          120     18854.27    19365.206   -36264.241   -141.91053   -379.15457   -2323.1024    72.371043    62.675163    36.106926    651.74515   -311725.52 
    1760    355.41185    163777.75     72.37127    72.371271    36.107039          120    19452.842     19181.31   -36897.672    706.18636    252.88212   -2351.3091     72.37127    62.675359    36.107039    578.82674   -311727.43 
    1770    353.97966    163779.51    72.371529     72.37153    36.107168          120    19293.979    19040.026   -37280.872    1158.0673   -257.60841   -2101.0446    72.371529    62.675584    36.107168    351.04416   -311726.71 
    1780    356.06944    163781.36    72.371802    72.371802    36.107304          120      18662.9    18722.511   -38171.624    1480.6154   -66.834342   -2037.8214    72.371802     62.67582    36.107304   -262.07118   -311733.85 
    1790    352.59615    163783.07    72.372054    72.372055     36.10743          120    18209.265    18616.619   -37798.615    1145.6393    6.7963313   -1572.2489    72.372054    62.676038     36.10743   -324.24393   -311730.08 
    1800    354.05917    163784.62    72.372281    72.372282    36.107544          120    18507.493    18587.896   -37139.332    441.43085   -234.74313   -1157.2616    72.372281    62.676235    36.107544   -14.647564   -311735.68 
    1810    347.49305    163786.12    72.372504    72.372504    36.107654          120    18748.251    18105.853   -36429.836    677.96728    -17.85878   -1159.6983    72.372504    62.676427    36.107654    141.42271   -311726.24 
    1820     345.4268    163787.63    72.372726    72.372727    36.107765          120    18107.888    18324.914   -37147.501    1340.7993    -522.9193   -1182.4138    72.372726     62.67662    36.107765   -238.23278   -311724.14 
    1830    348.70523    163789.01    72.372929    72.372929    36.107867          120    17435.648    19178.327   -37399.393    1156.7152   -548.62373   -1191.3645    72.372929    62.676796    36.107867   -261.80596   -311732.71 
    1840    350.55506    163790.23    72.373108    72.373109    36.107956          120    16463.574    19077.567   -37075.064    626.13107   -562.88601   -1615.0191    72.373108    62.676951    36.107956   -511.30793    -311739.3 
    1850    348.06881    163791.19     72.37325    72.373251    36.108027          120    15533.306    18521.554   -36795.704    146.37436     33.19437   -1749.8202     72.37325    62.677074    36.108027    -913.6149   -311737.18 
    1860    349.40681    163791.73    72.373329     72.37333    36.108066          120    15715.668    18111.265   -37246.515   -156.00026    17.986592   -944.81557    72.373329    62.677142    36.108066   -1139.8607   -311742.35 
    1870    347.14554    163791.77    72.373335    72.373336    36.108069          120    16889.154     18201.53   -37843.341      990.256     117.0224   -909.21609    72.373335    62.677147    36.108069   -917.55248   -311740.75 
    1880     347.3763     163791.4    72.373281    72.373281    36.108042          120     17036.25    18220.184   -37229.423    545.50639    120.98024   -1007.4768    72.373281      62.6771    36.108042   -657.66287   -311743.46 
    1890    343.85752    163790.77    72.373189    72.373189    36.107996          120    17611.754        18720   -36420.842    513.48756   -530.38695   -1492.0408    72.373189    62.677021    36.107996   -29.695817   -311738.97 
    1900    344.09723    163790.14    72.373095    72.373095    36.107949          120    17167.082    19459.506   -35762.465    930.65763   -588.64079   -1862.8341    72.373095    62.676939    36.107949    288.04101   -311741.15 
    1910    344.14154    163789.61    72.373018    72.373018    36.107911          120    17031.808    19674.864   -35918.168    116.48169    -704.1532   -1796.4679    72.373018    62.676872    36.107911    262.83471   -311743.21 
    1920    346.38707    163789.22     72.37296     72.37296    36.107882          120    16811.445    19727.905   -35968.042   -157.54448   -1222.6171   -1563.0392     72.37296    62.676822    36.107882     190.4363   -311749.35 
    1930    345.08496    163788.91    72.372913    72.372914    36.107859          120    16932.219    18134.352   -36291.821    26.006701   -883.79718   -2111.3012    72.372913    62.676782    36.107859   -408.41693   -311748.17 
    1940    344.39504    163788.43    72.372843    72.372843    36.107824          120    17211.721    17544.451    -37418.13   -19.044005   -201.20655   -1637.0414    72.372843    62.676721    36.107824   -887.31905    -311747.8 
    1950    344.89744    163787.57    72.372716    72.372717     36.10776          120    17423.451    17407.711   -38851.288     1.541378    277.99448   -1926.3362    72.372716    62.676611     36.10776   -1340.0419   -311749.35 
    1960    344.05925    163786.14    72.372506    72.372507    36.107656          120      17338.2    17125.719   -38866.716    727.05828    458.47823    -1743.407    72.372506    62.676429    36.107656   -1467.5989   -311748.95 
    1970    344.99851    163784.13     72.37221    72.372211    36.107508          120    17430.703    18508.453   -37752.478    1131.3218    1220.6603   -2000.8789     72.37221    62.676173    36.107508   -604.44071    -311750.8 
    1980    343.04746     163781.9    72.371882    72.371882    36.107344          120    17969.257    19357.898   -36759.199    879.65142    349.68809   -2976.8192    72.371882    62.675889    36.107344     189.3186   -311747.32 
    1990    342.52286    163779.77    72.371568    72.371568    36.107187          120    18241.611     19957.34   -37362.068    975.26562    616.87585   -2395.7529    72.371568    62.675617    36.107187    278.96104      -311746 
    2000    344.61987     163777.8    72.371278    72.371278    36.107043          120    17752.882    19738.882   -37102.533    909.85868    1293.3714   -2833.5479    72.371278    62.675366    36.107043    129.74328   -311749.71 
    2010     343.1943    163775.93    72.371001    72.371002    36.106905          120    18545.267    18521.534   -37182.493    850.16276    43.978426    -2698.417    72.371001    62.675126    36.106905   -38.563823   -311746.09 
    2020    346.17539     163774.1    72.370732    72.370733    36.106771          120    19259.289     18498.67   -36867.567    1033.5897   -250.57308   -1444.0936    72.370732    62.674893    36.106771    296.79728   -311751.83 
    2030    345.29403    163772.41    72.370484    72.370484    36.106647          120    18685.346    18746.712   -37882.261    509.81739    125.54669   -1875.2359    72.370484    62.674678    36.106647   -150.06775   -311749.18 
    2040     345.5642    163770.71    72.370233    72.370234    36.106522          120    18017.432    18918.612   -37581.824    522.87107    31.622846   -2387.9954    72.370233    62.674461    36.106522   -215.25992   -311749.36 
    2050     345.4927    163768.99     72.36998    72.369981    36.106396          120    18343.178    18562.261   -35867.173    726.66142   -319.60625   -2089.7619     72.36998    62.674242    36.106396    346.08825   -311747.52 
    2060    343.03255    163767.41    72.369747    72.369748    36.106279          120    17838.629     17986.55   -36800.145    665.25689    273.51194   -1415.5136    72.369747     62.67404    36.106279   -324.98843   -311741.34 
    2070     344.0994    163765.73    72.369499      72.3695    36.106155          120    17750.688    17850.067   -37244.016    771.87003    299.11266   -2224.4348    72.369499    62.673825    36.106155   -547.75335   -311742.13 
    2080    348.24561    163763.86    72.369224    72.369225    36.106018          120    18766.127    17075.039    -36345.36    140.41978    383.53145   -2038.8716    72.369224    62.673587    36.106018   -168.06481   -311748.92 
    2090    343.87322    163761.97    72.368946    72.368946    36.105879          120    19012.663    17421.509   -35413.884    349.14439    544.70756   -1505.9937    72.368946    62.673346    36.105879    340.09595   -311738.61 
    2100    348.40047    163760.25    72.368693    72.368693    36.105753          120    19075.854    18331.294   -36454.417     255.4872    114.26366   -2154.8223    72.368693    62.673127    36.105753    317.57716   -311744.55 
    2110    348.24537    163758.71    72.368466    72.368467     36.10564          120    18311.051    18976.101   -36410.137    169.38792    104.21135   -1141.4971    72.368466    62.672931     36.10564     292.3383   -311742.61 
    2120    348.08046    163757.33    72.368263    72.368263    36.105539          120    18390.976     18452.36   -35692.551    421.03174   -245.71463   -446.08066    72.368263    62.672755    36.105539    383.59509   -311739.64 
    2130    348.27169    163756.14    72.368087    72.368087    36.105451          120    17684.282    18366.429   -36064.537    734.06953   -193.98858   -1789.0275    72.368087    62.672602    36.105451   -4.6085791   -311737.51 
    2140    349.76768    163754.99    72.367917    72.367918    36.105366          120    17856.679    19328.469   -37300.102    826.59821    -117.0827   -1809.9327    72.367917    62.672455    36.105366   -38.317932   -311737.75 
    2150    351.97982    163753.85     72.36775     72.36775    36.105283          120    18425.235    19529.524   -37642.618    835.20006    223.47292   -1350.4337     72.36775     62.67231    36.105283     104.0472   -311739.54 
    2160    350.91665    163752.78    72.367592    72.367593    36.105204          120     18055.13    19676.447   -37363.287    663.24144    596.01385   -1988.0597    72.367592    62.672174    36.105204     122.7634   -311735.06 
    2170    349.67172    163751.81    72.367449    72.367449    36.105133          120    18032.249     19819.58   -36246.018    948.70029    684.16285   -2145.3886    72.367449     62.67205    36.105133    535.27026   -311730.67 
    2180    352.75476     163751.1    72.367344    72.367344     36.10508          120    18858.596    20016.097   -35836.861    598.87707    306.41909   -2201.3492    72.367344    62.671959     36.10508    1012.6107   -311734.71 
    2190    351.92174    163750.81    72.367302    72.367302    36.105059          120    18777.528    19435.333   -35956.211    638.62061   -216.29514   -2008.6782    72.367302    62.671922    36.105059    752.21654   -311731.45 
    2200    355.75136    163750.86     72.36731     72.36731    36.105063          120    18610.189    19098.946   -36293.777    456.67104    664.79283   -1253.8411     72.36731    62.671929    36.105063    471.78594   -311736.74 
    2210    353.71652    163751.15    72.367351    72.367352    36.105084          120    18462.173    19373.132   -35888.787    712.86851    593.22595    -1264.362    72.367351    62.671965    36.105084    648.83919   -311731.09 
    2220    353.62943    163751.69    72.367432    72.367433    36.105124          120    18855.971    19216.847   -36327.485    668.88587   -166.31725   -1510.0772    72.367432    62.672035    36.105124    581.77781   -311728.71 
    2230    353.07023    163752.49     72.36755     72.36755    36.105183          120    18724.599    19063.308   -35916.805    719.88216   -902.11252   -1244.8347     72.36755    62.672137    36.105183    623.70063   -311725.95 
    2240    353.67331    163753.55    72.367705    72.367706     36.10526          120    18736.138    19377.841   -36067.372    552.73605   -1194.1176   -2268.2167    72.367705    62.672272     36.10526     682.2023   -311725.55 
    2250    350.82244    163754.89    72.367903    72.367903    36.105359          120    18082.022    19421.514    -35146.82    212.86076   -1320.2603   -2095.9487    72.367903    62.672443    36.105359    785.57205   -311718.96 
    2260    357.09352    163756.54    72.368145    72.368146     36.10548          120    17505.528    19482.549    -35391.87    338.23247   -621.71301   -1742.6902    72.368145    62.672653     36.10548    532.06905   -311729.61 
[...]
   99200    347.12216    164508.69    72.478774    72.478775    36.160674          120    19220.405    16727.691   -38553.212    800.34223    876.31615    287.02312    72.478774     62.76846    36.160674   -868.37204   -311812.56 
   99210    352.96377    164508.08    72.478685    72.478685     36.16063          120    19390.384    17534.284   -37902.909    870.41231     1705.657    138.68467    72.478685    62.768383     36.16063   -326.08047   -311823.42 
   99220    346.16976     164507.3    72.478571    72.478571    36.160573          120    19885.307    17573.388   -38324.032    405.89831    1484.1827   -49.788052    72.478571    62.768284    36.160573   -288.44574   -311810.27 
   99230    349.11293     164506.4    72.478439     72.47844    36.160507          120     19583.58    16974.736   -37669.293    571.57645    1129.7131   -151.64994    72.478439     62.76817    36.160507   -370.32544   -311815.59 
   99240    348.26677    164505.28    72.478274    72.478275    36.160425          120    18823.267    15873.513   -39306.325    871.59031    973.96371   -80.813584    72.478274    62.768027    36.160425   -1536.5151   -311813.65 
   99250    348.55811    164503.49    72.478011    72.478012    36.160294          120    18401.285    16164.444   -40886.162    1078.5706    1621.4264    10.920424    72.478011      62.7678    36.160294   -2106.8111   -311814.03 
   99260    346.93788    164500.77    72.477611    72.477612    36.160094          120    18541.342    16997.209   -41180.867    908.43882    1336.7042    617.40462    72.477611    62.767453    36.160094   -1880.7718   -311811.17 
   99270    348.85548    164497.22    72.477091    72.477091    36.159834          120    19617.638    17328.211   -40269.888    1017.7068     1614.937     604.7066    72.477091    62.767002    36.159834   -1108.0128   -311814.61 
   99280    350.39285    164493.15    72.476492    72.476493    36.159536          120    19552.066    17311.599   -40222.014    529.65065    1608.6093    285.42258    72.476492    62.766484    36.159536   -1119.4496   -311817.16 
   99290    350.22283    164488.56    72.475819    72.475819      36.1592          120     19579.36    17450.937   -41264.926    922.73889    1531.2431   -40.706651    72.475819    62.765901      36.1592   -1411.5427   -311816.52 
   99300    346.18467    164483.39    72.475059    72.475059    36.158821          120    19773.509    17308.972     -40025.9    1077.4588    1163.1442   -531.38222    72.475059    62.765243    36.158821   -981.13961   -311808.31 
   99310     350.2341    164477.72    72.474226    72.474226    36.158405          120    18856.009    17028.815   -39601.147    717.62344    1803.1209    -693.6552    72.474226    62.764521    36.158405   -1238.7744   -311816.02 
   99320    347.35877    164471.51    72.473313    72.473314     36.15795          120    19115.277     16820.13   -38234.431    1000.4116    2014.8723   -656.36129    72.473313    62.763731     36.15795   -766.34139   -311810.56 
   99330    350.87779    164464.94    72.472349    72.472349    36.157469          120    19587.669    17591.154   -38727.735    1300.9025    1498.6193    154.86335    72.472349    62.762896    36.157469   -516.30404   -311817.02 
   99340    347.36403    164458.15    72.471351    72.471352    36.156971          120    20094.084    17476.841   -38812.141    1071.9256    1234.8466   -419.46486    72.471351    62.762032    36.156971   -413.73901   -311809.08 
   99350    348.52104    164451.15    72.470323    72.470323    36.156458          120    19154.851    17352.059   -39188.449    219.51598    1454.8343    44.768437    72.470323    62.761141    36.156458   -893.84617   -311811.07 
   99360    352.41089    164443.72    72.469232    72.469233    36.155914          120    19135.429     16440.77   -39913.309    374.53068    1965.7012   -443.86136    72.469232    62.760197    36.155914   -1445.7036   -311818.13 
   99370     350.4612     164435.7    72.468054    72.468054    36.155326          120    20147.372    16700.176   -39667.464    67.489072    1850.1763   -318.28004    72.468054    62.759176    36.155326   -939.97184   -311814.22 
   99380     351.3604    164427.26    72.466814    72.466815    36.154707          120    19857.202    17703.094   -38383.593    132.03509    1492.4951    19.303009    72.466814    62.758103    36.154707   -274.43222   -311815.95 
   99390    347.09183    164418.69    72.465554    72.465555    36.154079          120    20357.456    17795.338   -37868.143    535.26912    1454.3898   -468.00503    72.465554    62.757012    36.154079    94.884006   -311807.06 
   99400    352.22145    164410.13    72.464297    72.464297    36.153451          120     20250.39    18138.325    -38226.47    1055.2643     2199.119   -424.44051    72.464297    62.755922    36.153451    54.081423   -311817.26 
   99410    347.72081    164401.61    72.463046    72.463046    36.152827          120    20739.486    18051.021   -37852.683    592.43168     2444.008    -325.1137    72.463046    62.754839    36.152827    312.60827   -311808.12 
   99420    351.69172    164393.22    72.461813    72.461814    36.152212          120    20780.348    17918.337   -37680.634    185.31004    1826.9355   -460.27944    72.461813    62.753772    36.152212    339.35042   -311815.71 
   99430    350.41227    164384.98    72.460603    72.460603    36.151608          120    20543.975    18054.951   -37346.579    856.30413    1183.3368   -829.79828    72.460603    62.752724    36.151608    417.44907    -311812.8 
   99440    349.82136    164376.93    72.459419    72.459419    36.151018          120     20040.13    18171.442   -37653.538    950.51438    606.98692    223.13583    72.459419    62.751698    36.151018    186.01122   -311811.04 
   99450    353.11893    164368.92    72.458242    72.458242     36.15043          120    19507.954    17853.123   -39217.386    1090.8479    851.00672   -77.980355    72.458242    62.750679     36.15043   -618.76946   -311816.89 
   99460    348.26428    164360.69    72.457034    72.457034    36.149828          120    19691.535    18342.378   -39517.895    1158.0512    1662.1324   -152.29607    72.457034    62.749632    36.149828   -494.66098   -311807.24 
   99470    350.19872    164352.25    72.455793    72.455793    36.149208          120    20016.155    18005.898   -39474.045    1135.1638    2025.6154    404.50226    72.455793    62.748558    36.149208   -483.99769    -311810.8 
   99480    351.53757    164343.59     72.45452    72.454521    36.148574          120    20316.389    18020.524   -38321.213    587.13738     2718.128   -231.26213     72.45452    62.747456    36.148574    5.2332726      -311813 
   99490    354.03067    164334.94    72.453249     72.45325    36.147939          120    20716.025    18658.736   -36898.568    497.20415    2120.8023   -801.92673    72.453249    62.746355    36.147939    825.39749   -311817.92 
   99500    351.98632    164326.64    72.452029    72.452029    36.147331          120    21481.722    18150.307   -37135.905    776.49177    1579.4369   -1159.6547    72.452029    62.745298    36.147331     832.0412   -311813.75 
   99510     349.0861    164318.68     72.45086     72.45086    36.146747          120    20550.907    17942.208   -38055.926     440.3159    1823.6611   -596.13826     72.45086    62.744286    36.146747    145.72972   -311807.96 
   99520     351.5503    164310.81    72.449703    72.449704     36.14617          120    19627.496     17980.68   -38406.612    184.93465    530.64869   -1188.9569    72.449703    62.743284     36.14617   -266.14536   -311813.03 
   99530    346.89564    164302.86    72.448534    72.448534    36.145587          120    19818.045    18507.222   -38409.902    631.83464      376.988    -1124.802    72.448534    62.742271    36.145587    -28.21171   -311803.58 
   99540    354.66891    164294.86    72.447359    72.447359    36.145001          120    19778.719    18703.366    -38765.22    536.30882    394.36563   -1068.2681    72.447359    62.741254    36.145001   -94.378139   -311818.69 
   99550     351.1643    164286.87    72.446184    72.446185    36.144415          120    20373.967     18419.95   -37304.717    481.86708    825.79113    131.38424    72.446184    62.740237    36.144415    496.40002    -311811.9 
   99560    351.12377    164279.11    72.445044    72.445044    36.143846          120    21524.105     18603.17   -37271.284     539.2098    1456.1995    606.06585    72.445044    62.739249    36.143846    951.99697   -311811.68 
   99570    354.28537    164271.77    72.443965    72.443965    36.143307          120    21117.689    19259.266   -37486.327    672.36904    2449.7464   -75.639222    72.443965    62.738314    36.143307    963.54258   -311817.29 
   99580    351.15121    164264.88    72.442952    72.442953    36.142802          120    21544.464    18679.753   -36879.054    900.71141    2192.9558    211.77919    72.442952    62.737437    36.142802    1115.0544    -311811.4 
   99590     351.6402    164258.49    72.442012    72.442013    36.142333          120    21663.497    19442.222   -37644.178    559.49806    2107.6135    271.70385    72.442012    62.736623    36.142333    1153.8472   -311812.48 
   99600    350.36768    164252.65    72.441153    72.441153    36.141904          120    22107.684    19986.401   -37145.642     597.6839    1680.2468    915.70693    72.441153    62.735879    36.141904    1649.4811   -311810.28 
   99610    351.31369    164247.54    72.440402    72.440403     36.14153          120    22698.141    19738.756   -36202.625   -7.1624448    1630.3749    897.35395    72.440402    62.735229     36.14153    2078.0906   -311812.59 
   99620    353.57381    164243.33    72.439783    72.439783    36.141221          120    22392.276     19655.47   -36967.481    145.50663    1745.5404   -404.98845    72.439783    62.734693    36.141221    1693.4216   -311817.74 
   99630    348.23468    164239.89    72.439277    72.439277    36.140969          120    21528.036    19394.587   -37072.785    98.112925    1251.4662   -697.43424    72.439277    62.734255    36.140969    1283.2791   -311808.18 
   99640    349.04353    164236.98    72.438849     72.43885    36.140755          120    20211.787    18967.173   -37953.977    510.38655    1635.1572   -480.18219    72.438849    62.733884    36.140755    408.32763   -311810.42 
   99650    350.32242    164234.33     72.43846    72.438461    36.140561          120    20615.685    19535.602   -37189.878    1109.8657    1118.8463   -65.461918     72.43846    62.733547    36.140561    987.13621   -311813.52 
   99660    350.68609    164232.11    72.438134    72.438134    36.140398          120    20664.696    19791.675    -37417.92    1350.2347    1450.0453   -95.805032    72.438134    62.733265    36.140398     1012.817   -311815.08 
   99670    348.97566    164230.35    72.437875    72.437875    36.140269          120      21360.7    19426.254   -37848.564    1179.1988    964.84212   -269.91942    72.437875     62.73304    36.140269    979.46318   -311812.55 
   99680    348.93281    164229.05    72.437683    72.437684    36.140174          120     21442.08    19935.689    -36986.36    1095.5484    477.99582   -440.39107    72.437683    62.732875    36.140174    1463.8029   -311813.55 
   99690    349.77542    164228.36    72.437582    72.437583    36.140123          120    21084.827    19518.088    -36609.38     924.8694    1484.9919   -794.16326    72.437582    62.732787    36.140123    1331.1783   -311816.06 
   99700    351.24161    164228.31    72.437575    72.437575    36.140119          120    21742.024    19422.245   -36194.314    434.80424    1635.7326   -734.57288    72.437575     62.73278    36.140119    1656.6519   -311819.92 
   99710    348.12792    164229.01    72.437678    72.437678    36.140171          120    21905.655    20317.122   -35992.057    784.80545    1618.9709   -70.990205    72.437678     62.73287    36.140171    2076.9066   -311814.77 
   99720    349.52258    164230.63    72.437916    72.437916    36.140289          120    21608.405    20367.223   -35613.707    1224.2246    1159.8001    48.144539    72.437916    62.733076    36.140289    2120.6404   -311817.99 
   99730    348.12787    164233.15    72.438286    72.438287    36.140474          120    21129.217    19725.875   -37524.361    1261.6359    1754.9159   -222.79633    72.438286    62.733397    36.140474    1110.2435   -311816.45 
   99740    349.94617    164236.21    72.438736    72.438737    36.140699          120    21713.417    19275.109   -38326.267    1305.5995    1375.6587   -641.05595    72.438736    62.733786    36.140699    887.41979   -311820.66 
   99750    349.80546    164239.68    72.439246    72.439247    36.140953          120    21179.603    19283.999   -37409.517     251.4856    1682.6006   -586.61453    72.439246    62.734228    36.140953    1018.0282   -311821.67 
   99760    348.15846    164243.61    72.439825    72.439825    36.141242          120    21527.732    18795.423   -36718.831    356.67788    2051.4795    -636.1714    72.439825    62.734729    36.141242    1201.4413   -311819.46 
   99770    346.72105    164248.11    72.440486    72.440486    36.141572          120      22087.7    19099.107   -36261.584     754.3792    1959.2171    -36.73214    72.440486    62.735301    36.141572    1641.7411   -311817.42 
   99780    350.85417    164253.35    72.441256    72.441256    36.141956          120    21919.907    20132.676   -35739.987     497.8709    2255.7794   -346.65108    72.441256    62.735968    36.141956    2104.1987   -311826.11 
   99790    347.56122     164259.5     72.44216    72.442161    36.142407          120    21544.254     19947.72   -36821.737    399.05293     1884.183   -236.68488     72.44216    62.736752    36.142407    1556.7455   -311819.81 
   99800    346.71337    164266.33    72.443165    72.443165    36.142908          120    20278.672    19221.049   -37625.909    526.92022    1422.0145   -240.42164    72.443165    62.737622    36.142908    624.60413   -311817.67 
   99810    346.43546    164273.45     72.44421    72.444211     36.14343          120    19804.449    19379.952   -38644.572    675.28359    1197.3245   -583.54373     72.44421    62.738527     36.14343    179.94318   -311817.59 
   99820    347.19854    164280.64    72.445269    72.445269    36.143958          120    19837.244    18807.747   -38529.957     984.4602    1942.0915    420.29605    72.445269    62.739444    36.143958    38.344804   -311819.51 
   99830    346.32178    164287.84    72.446327    72.446327    36.144486          120    20371.045    17673.012   -39279.582     969.9889    1753.7588    228.71224    72.446327     62.74036    36.144486   -411.84181   -311817.38 
   99840    346.60463    164294.91    72.447365    72.447366    36.145004          120    20250.654    18272.365   -37934.263    557.46644    1188.0837      106.771    72.447365    62.741259    36.145004    196.25206   -311818.09 
   99850    347.52387    164302.05    72.448415    72.448416    36.145528          120    20673.736    19063.125   -37411.191    428.99098     1681.504   -738.99433    72.448415    62.742168    36.145528    775.22324   -311819.72 
   99860    347.34123    164309.51    72.449511    72.449512    36.146075          120    21474.885    18415.244   -37031.083    440.46193     1930.087    -372.0724    72.449511    62.743118    36.146075    953.01527   -311818.92 
   99870    348.38652    164317.42    72.450673    72.450674    36.146654          120    21428.016    18044.412   -35626.294    561.52147    1763.3846   -559.30716    72.450673    62.744124    36.146654    1282.0444   -311820.68 
   99880    344.99202    164325.84    72.451912    72.451912    36.147272          120    20782.574    17647.212   -37072.158    563.90727    1367.5199   -453.64457    72.451912    62.745197    36.147272    452.54263    -311813.6 
   99890     348.0645    164334.48    72.453182    72.453182    36.147906          120    20199.749    17250.372   -37613.749    915.22024    1002.3393   -736.23992    72.453182    62.746297    36.147906   -54.542795   -311818.91 
   99900    348.11299    164343.08    72.454445    72.454446    36.148536          120    19433.196      16942.2    -38201.12     409.5102    642.28355   -543.79208    72.454445    62.747391    36.148536   -608.57441   -311818.64 
   99910    346.69264    164351.39    72.455667    72.455668    36.149146          120    18805.676     17400.13   -38939.237    527.91959    657.67597   -457.86118    72.455667    62.748449    36.149146   -911.14377   -311814.59 
   99920    350.82011     164359.3    72.456829     72.45683    36.149726          120    19174.196    17347.302   -38521.349    163.59584     1615.595    -728.7043    72.456829    62.749455    36.149726    -666.6169   -311821.37 
   99930    347.83105    164366.95    72.457952    72.457953    36.150286          120    20036.639    17575.468   -37839.379    340.09299    1189.8453   -1043.3032    72.457952    62.750428    36.150286   -75.757281   -311814.66 
   99940    352.66902    164374.52    72.459066    72.459066    36.150841          120    19842.518    17824.302   -38342.611    709.24585    743.53188   -1190.9142    72.459066    62.751392    36.150841   -225.26353   -311822.69 
   99950    348.13232    164381.99    72.460162    72.460163    36.151389          120    19913.817    17267.725   -38763.313    414.23608   -11.923568   -259.87177    72.460162    62.752342    36.151389   -527.25711   -311812.66 
   99960    349.11583    164389.21    72.461223    72.461224    36.151918          120    19819.651     17054.52   -39062.067    763.33534    822.91126     368.5552    72.461223    62.753261    36.151918   -729.29851   -311812.99 
   99970    350.39111     164396.1    72.462236    72.462237    36.152423          120    19573.905    17278.287   -38057.854    744.14504    1669.1918   -487.28673    72.462236    62.754138    36.152423   -401.88741   -311813.91 
   99980    349.67219    164402.78    72.463218    72.463218    36.152913          120    19700.081      17952.1   -39710.964    716.60503    1976.8463   -881.30727    72.463218    62.754988    36.152913   -686.26114    -311811.4 
   99990     349.1497    164409.18    72.464158    72.464158    36.153382          120    20387.393    18098.568   -40318.244    421.53808      1700.65   -843.49821    72.464158    62.755802    36.153382   -610.76099   -311809.99 
  100000    350.34871    164415.32     72.46506     72.46506    36.153832          120     20457.59    18236.481   -39687.605    262.95754    1876.8238   -282.73984     72.46506    62.756583    36.153832   -331.17811   -311811.83 
Loop time of 29280.6 on 1 procs for 100000 steps with 14848 atoms

Performance: 0.295 ns/day, 81.335 hours/ns, 3.415 timesteps/s
100.0% CPU use with 1 MPI tasks x no OpenMP threads

MPI task timing breakdown:
Section |  min time  |  avg time  |  max time  |%varavg| %total
---------------------------------------------------------------
Pair    | 23656      | 23656      | 23656      |   0.0 | 80.79
Bond    | 0.012812   | 0.012812   | 0.012812   |   0.0 |  0.00
Kspace  | 1079.1     | 1079.1     | 1079.1     |   0.0 |  3.69
Neigh   | 3883.9     | 3883.9     | 3883.9     |   0.0 | 13.26
Comm    | 36.569     | 36.569     | 36.569     |   0.0 |  0.12
Output  | 1.0287     | 1.0287     | 1.0287     |   0.0 |  0.00
Modify  | 614.02     | 614.02     | 614.02     |   0.0 |  2.10
Other   |            | 9.556      |            |       |  0.03

Nlocal:    14848 ave 14848 max 14848 min
Histogram: 1 0 0 0 0 0 0 0 0 0
Nghost:    46722 ave 46722 max 46722 min
Histogram: 1 0 0 0 0 0 0 0 0 0
Neighs:    1.00084e+07 ave 1.00084e+07 max 1.00084e+07 min
Histogram: 1 0 0 0 0 0 0 0 0 0

Total # of neighbors = 10008425
Ave neighs/atom = 674.059
Ave special neighs/atom = 0
Neighbor list builds = 14239
Dangerous builds = 0
 
All done!
Total wall time: 8:13:03
