LAMMPS (16 Mar 2018)
Reading data file ...
  triclinic box = (0 0 0) to (9.208 7.97436 18.376) with tilt (-4.604 0 0)
  1 by 1 by 1 MPI processor grid
  reading atoms ...
  116 atoms
Finding 1-2 1-3 1-4 neighbors ...
  special bond factors lj:   0          0          0         
  special bond factors coul: 0          0          0         
  0 = max # of 1-2 neighbors
  0 = max # of 1-3 neighbors
  0 = max # of 1-4 neighbors
  1 = max # of special neighbors
Replicating atoms ...
  triclinic box = (0 0 0) to (73.664 63.7949 36.752) with tilt (-36.832 0 0)
  1 by 1 by 1 MPI processor grid
  14848 atoms
Finding 1-2 1-3 1-4 neighbors ...
  special bond factors lj:   0          0          0         
  special bond factors coul: 0          0          0         
  0 = max # of 1-2 neighbors
  0 = max # of 1-3 neighbors
  0 = max # of 1-4 neighbors
  1 = max # of special neighbors
  Time spent = 0.00274801 secs
PPPM initialization ...
WARNING: System is not charge neutral, net charge = -0.2048 (../kspace.cpp:302)
  using 12-bit tables for long-range coulomb (../kspace.cpp:321)
  G vector (1/distance) = 0.201681
  grid = 36 50 24
  stencil order = 5
  estimated absolute RMS force accuracy = 0.00105653
  estimated relative force accuracy = 7.33721e-05
  using double precision FFTs
  3d grid and FFT values/proc = 65395 43200
Neighbor list info ...
  update every 1 steps, delay 0 steps, check yes
  max neighbors/atom: 2000, page size: 100000
  master list distance cutoff = 15.3
  ghost atom cutoff = 15.3
  binsize = 7.65, bins = 15 9 5
  3 neighbor lists, perpetual/occasional/extra = 3 0 0
  (1) pair morse, perpetual
      attributes: half, newton on
      pair build: half/bin/newton/tri
      stencil: half/bin/3d/newton/tri
      bin: standard
  (2) pair buck, perpetual, copy from (1)
      attributes: half, newton on
      pair build: copy
      stencil: none
      bin: none
  (3) pair lj/cut/coul/long, perpetual, copy from (1)
      attributes: half, newton on
      pair build: copy
      stencil: none
      bin: none
Setting up Verlet run ...
  Unit style    : metal
  Current step  : 0
  Time step     : 0.001
Per MPI rank memory allocation (min/avg/max) = 145.7 | 145.7 | 145.7 Mbytes
Step Temp Volume Cella Cellb Cellc CellGamma Pxx Pyy Pzz Pxy Pxz Pyz Lx Ly Lz Press PotEng 
       0          400    172711.88       73.664    73.664001       36.752          120   -206737.33   -206804.43   -277781.66     32.79508   -10.173022    13.603454       73.664    63.794896       36.752   -230441.14   -309191.56 
      10    407.30064    172661.88    73.656891    73.656892    36.748453          120   -206810.09   -206893.04   -253798.42    131.65326   -30.452372   -200.34244    73.656891     63.78874    36.748453   -222500.52   -309231.47 
      20    686.37903    172515.48    73.636068    73.636068    36.738064          120   -201257.34   -200938.41   -193411.92    40.277855     -279.094   -445.99497    73.636068    63.770706    36.738064   -198535.89   -309795.59 
      30    718.99707    172284.67    73.603213    73.603214    36.721673          120   -169335.05    -169047.1    -114137.6   -187.39728   -852.19339   -498.51149    73.603213    63.742253    36.721673   -150839.92   -309903.61 
      40    500.43642    171992.99    73.561652    73.561653    36.700937          120   -120575.22   -120947.77   -34081.515   -819.49728   -1157.6817    -523.1181    73.561652     63.70626    36.700937    -91868.17   -309511.99 
      50    593.82221    171669.79    73.515546    73.515547    36.677934          120   -82299.678   -83142.266   -6068.4985   -651.68181   -1118.4619   -639.17831    73.515546    63.666331    36.677934   -57170.148   -309706.25 
      60    872.47465    171335.98    73.467864    73.467865    36.654145          120   -63912.797   -63682.594   -47893.105   -831.69511   -1966.3575   -500.28486    73.467864    63.625038    36.654145   -58496.165    -310264.3 
      70    1029.0673     170998.6    73.419612    73.419612    36.630071          120   -53284.514   -53332.452    -111599.4   -1817.4395   -2463.9579   -666.65735    73.419612    63.583249    36.630071   -72738.787   -310613.66 
      80    897.79429    170658.69    73.370931    73.370931    36.605784          120   -47702.248   -49036.703   -157288.95   -1860.0575   -2676.4298    6.6189169    73.370931    63.541091    36.605784   -84675.968   -310417.64 
      90    645.45532    170317.88    73.322057    73.322058      36.5814          120   -43440.421   -44171.585   -170612.41   -2055.2894    -3123.283   -724.92798    73.322057    63.498765      36.5814   -86074.804   -309979.38 
     100    661.01212    169981.73    73.273787    73.273788    36.557317          120   -27528.498     -27793.5      -149704   -1854.1035   -2859.3736   -1077.6992    73.273787    63.456962    36.557317   -68342.001   -310047.32 
     110    826.42657       169661    73.227673    73.227673     36.53431          120   -7561.2243   -8042.7287   -108232.27   -1871.8678   -1496.3253   -1345.1174    73.227673    63.417026     36.53431   -41278.739   -310407.11 
     120    843.09149    169366.93    73.185341    73.185342    36.513191          120    3301.9011    3249.5894   -59878.877   -1839.0554   -948.25351    -1544.704    73.185341    63.380365    36.513191   -17775.796   -310485.25 
     130     747.0494    169105.96    73.147732    73.147733    36.494427          120    2784.6794    3999.8852   -21900.619   -1627.9431   -992.47504   -1674.9608    73.147732    63.347795    36.494427   -5038.6847   -310341.81 
     140    696.28879    168877.98    73.114846    73.114846    36.478019          120   -1467.7737   -1504.3882   -8745.5897   -1090.1194   -920.00818   -1784.1364    73.114846    63.319314    36.478019   -3905.9172   -310278.13 
     150     738.3522    168677.46    73.085896    73.085897    36.463576          120    -9150.928   -8311.0093   -28593.285   -1787.2606   -582.18225   -1341.5965    73.085896    63.294244    36.463576   -15351.741   -310393.13 
     160    800.01892    168494.81    73.059508    73.059508     36.45041          120   -18874.993   -17681.541    -62231.69   -1557.3324   -1273.6423   -1626.4629    73.059508     63.27139     36.45041   -32929.408   -310553.66 
     170    794.27616     168319.6    73.034174    73.034175    36.437771          120     -23392.2   -21834.544   -91939.029   -902.48835   -2224.7039   -1695.5481    73.034174    63.249451    36.437771   -45721.924   -310588.94 
     180    724.20402    168144.41    73.008827    73.008828    36.425125          120    -21587.48   -19545.471   -110214.39   -995.06353   -2575.6946    -1915.006    73.008827      63.2275    36.425125   -50449.113   -310500.72 
     190    694.72873    167965.93    72.982986    72.982987    36.412233          120   -17558.244   -15710.182   -110894.56   -453.05008   -2442.5282   -1954.9381    72.982986    63.205121    36.412233    -48054.33   -310484.96 
     200    727.60035    167784.26    72.956664    72.956664      36.3991          120   -13203.906   -12892.183   -93764.524   -754.66459   -2223.7613   -1949.3757    72.956664    63.182325      36.3991   -39953.538   -310588.86 
     210    741.44035    167601.86    72.930217    72.930218    36.385905          120   -8604.6428   -8588.6886   -71851.038   -1109.1381   -1810.7178   -1977.4375    72.930217    63.159421    36.385905   -29681.456   -310657.32 
     220     723.6569    167422.08    72.904132    72.904132    36.372891          120    -6134.528   -4192.2178   -53698.044    -1051.786   -1201.6605   -2925.3435    72.904132    63.136831    36.372891   -21341.597   -310663.87 
     230    702.93594    167247.43    72.878771    72.878772    36.360238          120   -6082.4034   -4448.9851   -44659.339   -538.63546   -827.57634   -3554.8245    72.878771    63.114868    36.360238   -18396.909    -310662.7 
     240    698.97535    167078.36    72.854205    72.854206    36.347982          120   -8705.6116    -6228.682    -46416.57   -184.43476   -1846.9555   -3570.4043    72.854205    63.093593    36.347982   -20450.288   -310693.23 
     250    708.81169    166913.47    72.830232    72.830232    36.336021          120   -10746.413   -9446.6453   -58154.672    205.19923    -2030.358   -3469.6424    72.830232    63.072832    36.336021    -26115.91   -310751.37 
     260    713.70356    166750.24    72.806482    72.806483    36.324172          120   -12185.381   -12225.697    -72069.36    216.38311   -2056.9433   -4013.3832    72.806482    63.052264    36.324172   -32160.146    -310802.2 
     270    693.27358    166586.23    72.782605    72.782606     36.31226          120    -12004.71   -13058.396   -81863.815    228.45581   -1750.4694   -3297.4268    72.782605    63.031586     36.31226   -35642.307   -310805.01 
     280    670.11649    166420.28    72.758428    72.758429    36.300198          120   -11157.414   -10388.163   -83352.299    59.033257   -1358.7257    -2100.331    72.758428    63.010648    36.300198   -34965.959   -310799.89 
     290    671.10274    166252.97    72.734037    72.734038    36.288029          120   -7663.9654   -5574.0718    -75800.55    552.56187   -1105.9168   -2232.1622    72.734037    62.989525    36.288029   -29679.529   -310840.57 
     300    672.22104    166086.58    72.709766    72.709766    36.275919          120   -3048.7285   -925.49158   -64512.882    454.31833   -510.23537   -2214.8675    72.709766    62.968505    36.275919   -22829.034   -310880.55 
     310    662.61437    165923.92     72.68602    72.686021    36.264072          120    479.80199    1351.3497   -51943.369    411.91576   -49.355495   -2249.5137     72.68602    62.947941    36.264072   -16704.073   -310898.28 
     320    653.24314    165767.19    72.663128    72.663128    36.252651          120    1796.2558    1827.1248   -42838.381    450.86288   -869.18194   -1912.1201    72.663128    62.928115    36.252651   -13071.667   -310915.94 
     330    642.74337    165617.53    72.641254    72.641255    36.241738          120    1944.3371    1800.2727   -40213.183   -123.48834   -986.61389   -1500.7846    72.641254    62.909172    36.241738   -12156.191   -310930.25 
     340    645.20444    165474.86    72.620389    72.620389    36.231328          120    367.88591    1897.7537   -45393.363   -7.5503051   -1258.0556   -1805.7377    72.620389    62.891102    36.231328   -14375.908    -310969.5 
     350    639.25179    165337.91    72.600349     72.60035     36.22133          120   -75.006083    1280.7661   -54991.649    116.49943   -1145.1865   -2442.5639    72.600349    62.873748     36.22133    -17928.63   -310992.49 
     360    622.20178    165204.99    72.580889    72.580889    36.211621          120   -349.33948    1234.0241   -63300.653   -502.07912   -1064.5444   -2181.0642    72.580889    62.856894    36.211621   -20805.323   -310993.38 
     370    609.74886    165074.78    72.561814    72.561815    36.202104          120    841.92188    1586.8272   -66120.219   -316.24741   -2191.6056   -2924.2784    72.561814    62.840375    36.202104    -21230.49   -311002.14 
     380     608.5367    164947.02     72.54309     72.54309    36.192762          120    3344.8867    4395.7926   -61189.065   -625.15999   -2255.3313   -2881.3043     72.54309    62.824159    36.192762   -17816.129   -311031.67 
     390    607.06536    164822.69    72.524859     72.52486    36.183667          120    5713.9605    6991.8099   -54207.853   -953.34065   -1637.3783   -2379.4969    72.524859    62.808371    36.183667   -13834.028   -311059.35 
     400     598.2342    164703.09    72.507312    72.507313    36.174912          120    8425.8891    8879.3974   -45280.606   -866.51032   -1180.1075   -2138.7244    72.507312    62.793175    36.174912   -9325.1065   -311072.91 
     410     592.6621    164589.46    72.490634    72.490635    36.166591          120     9445.523    10866.728    -39094.56   -807.25851   -1201.5769   -2210.6145    72.490634    62.778731    36.166591   -6260.7697   -311092.26 
     420    588.52733    164482.44    72.474919     72.47492    36.158751          120    10001.961    11398.065   -36597.683   -545.52013   -984.22665   -1345.2082    72.474919    62.765122    36.158751   -5065.8858   -311113.54 
     430    580.41446    164381.89    72.460148    72.460149    36.151382          120    9751.5487    10569.542   -38359.953    -216.8023   -889.65181   -1098.0031    72.460148     62.75233    36.151382   -6012.9541   -311125.97 
     440    577.99102    164286.88    72.446185    72.446186    36.144415          120    9810.4005    9501.1431   -44178.759    77.056812   -612.23022   -718.80557    72.446185    62.740237    36.144415    -8289.072   -311150.45 
     450     569.1219     164196.1    72.432838    72.432839    36.137756          120    10075.229    9001.1971   -49228.174    310.39464   -547.54171   -486.45215    72.432838    62.728679    36.137756   -10050.583   -311161.16 
     460    557.91557     164108.5    72.419956    72.419956    36.131329          120    10955.272    10207.919   -51850.431    555.95523   -717.92793   -594.53059    72.419956    62.717522    36.131329    -10229.08    -311166.7 
     470    551.73659     164023.7     72.40748     72.40748    36.125105          120      12275.3    12078.425   -51150.535    357.24488   -413.14912   -762.56016     72.40748    62.706718    36.125105   -8932.2698   -311180.69 
     480    552.51621    163941.91    72.395442    72.395442    36.119099          120    14084.228    13143.321   -46488.535   -251.39058   -997.12548   -834.42796    72.395442    62.696292    36.119099   -6420.3288   -311207.24 
     490    540.70952    163863.74    72.383935    72.383935    36.113357          120    14615.635    14726.497   -39907.412   -208.08818   -1009.2126   -653.86024    72.383935    62.686327    36.113357     -3521.76   -311208.89 
     500    536.77705     163789.9     72.37306    72.373061    36.107932          120    15799.513    16310.684   -36634.635   -173.67168   -717.60287   -938.33415     72.37306    62.676909    36.107932   -1508.1461   -311225.92 
     510    538.55468    163720.77    72.362877    72.362877    36.102851          120    16097.406     16650.06   -34268.585   -330.65326    51.262235     78.81061    72.362877     62.66809    36.102851   -507.03969   -311253.53 
     520    534.75454    163656.32     72.35338    72.353381    36.098113          120    16191.233    16788.645   -34649.806   -626.97452    712.61673   -178.69814     72.35338    62.659866    36.098113   -556.64278   -311269.69 
     530    524.56732    163596.11    72.344506    72.344506    36.093686          120    15826.072    16789.673   -38228.042   -504.31276   -215.39809    54.375274    72.344506     62.65218    36.093686   -1870.7657   -311272.44 
     540    520.03338    163539.33    72.336134    72.336135    36.089509          120    15408.099     16633.98   -41561.958    63.067258   -1296.9717    342.39278    72.336134    62.644931    36.089509   -3173.2928   -311286.28 
     550    515.42247    163485.18     72.32815    72.328151    36.085526          120    14752.404    17140.326   -43345.229     -39.9241   -1275.9853   -117.28109     72.32815    62.638016    36.085526   -3817.4999   -311299.71 
     560    510.91297    163433.26    72.320492    72.320493    36.081705          120    16082.192     18218.89   -41940.279   -380.56391   -594.33459    259.44406    72.320492    62.631384    36.081705   -2546.3992   -311312.68 
     570    504.86277    163383.78    72.313194    72.313194    36.078064          120    17506.891    19114.458   -38815.902   -26.090477   -628.81374    998.77116    72.313194    62.625064    36.078064   -731.51748   -311322.48 
     580    504.45584    163337.24    72.306327    72.306328    36.074638          120    18892.142    20346.881   -35397.565    592.62248    587.54202    458.66897    72.306327    62.619117    36.074638    1280.4861   -311342.01 
     590    497.51085    163294.15    72.299968    72.299969    36.071465          120    19547.652    21380.338    -32381.71    421.89434    566.42013    25.046053    72.299968     62.61361    36.071465    2848.7598   -311349.19 
     600    490.95103    163254.76    72.294154    72.294154    36.068564          120    19113.867    21058.838   -32715.173    265.89465     844.9529   -320.50051    72.294154    62.608574    36.068564     2485.844   -311356.17 
     610    486.26114    163218.75    72.288838    72.288839    36.065913          120    20113.178    21068.398   -33922.785   -637.00927    2104.3764   -1055.9299    72.288838    62.603971    36.065913    2419.5969   -311365.72 
     620    483.00064    163185.81    72.283975    72.283975    36.063486          120    20810.733    20847.816   -36101.746   -737.35712     1306.114   -885.53074    72.283975    62.599759    36.063486    1852.2679   -311378.57 
     630    479.97401    163155.52    72.279503    72.279503    36.061255          120    20390.017    20687.596   -37314.246   -772.97648     1402.964    37.942173    72.279503    62.595886    36.061255    1254.4557   -311391.31 
     640    471.14678    163127.54     72.27537     72.27537    36.059193          120    21555.642    20930.911   -37372.887     -820.178     1026.756    1025.7794     72.27537    62.592307    36.059193    1704.5555   -311392.64 
     650    468.31219    163101.81     72.27157     72.27157    36.057297          120    21685.356    21998.553   -36760.869    68.577425   -323.68935    1413.8089     72.27157    62.589016    36.057297    2307.6799    -311404.5 
     660    471.01086    163078.44    72.268118    72.268119    36.055575          120    22448.921    22443.781   -34647.137    334.52989   -229.55221    1211.3576    72.268118    62.586027    36.055575    3415.1886   -311426.68 
     670    468.11255    163057.67     72.26505     72.26505    36.054044          120    22523.406    22487.535   -33193.799    167.88727    62.683925     1077.094     72.26505    62.583369    36.054044    3939.0473   -311437.68 
     680    455.76235    163039.54    72.262371    72.262372    36.052708          120    21542.835    22628.181   -32037.437   -50.296688    -69.55584    753.47769    72.262371     62.58105    36.052708    4044.5266   -311430.08 
     690     455.7128    163023.93    72.260065    72.260066    36.051557          120    21231.041    22683.379   -31527.497   -302.88858    797.20701    237.15884    72.260065    62.579053    36.051557    4128.9743   -311445.31 
     700    449.87846    163010.71    72.258112    72.258112    36.050583          120    21735.421    22001.049   -32226.494    442.29128    999.40665    361.66334    72.258112    62.577361    36.050583    3836.6588   -311449.37 
     710    449.11977    162999.62    72.256474    72.256474    36.049765          120    20602.335    21634.719   -33442.661    782.03417    723.67575   -516.67025    72.256474    62.575942    36.049765    2931.4644   -311463.08 
     720    446.66054    162990.22    72.255084    72.255085    36.049072          120    19605.689    21387.058   -34736.883    940.10577    941.54001   -455.53854    72.255084    62.574739    36.049072     2085.288   -311472.92 
     730    445.63095    162982.13    72.253889    72.253889    36.048476          120    19995.956    22117.183   -34712.939     1176.072    976.10235   -693.81588    72.253889    62.573704    36.048476    2466.7332   -311484.97 
     740    446.18641    162975.39    72.252892    72.252893    36.047979          120    20658.467    22200.252   -34217.721    457.95796    1032.9195   -1078.7626    72.252892    62.572841    36.047979    2880.3325   -311499.87 
     750    438.17461    162970.09     72.25211     72.25211    36.047588          120    21688.303    21967.017   -33184.971    266.37729    481.87769   -264.13306     72.25211    62.572163    36.047588    3490.1165   -311497.89 
     760    435.52512    162966.39    72.251563    72.251563    36.047315          120    22278.342     22104.17   -31930.076    393.08293    1169.2108    846.77296    72.251563     62.57169    36.047315     4150.812   -311506.01 
     770    434.74753    162964.44    72.251275    72.251275    36.047171          120    22916.847    22592.767   -31434.809    540.08283    1078.8448    599.69729    72.251275     62.57144    36.047171    4691.6015   -311517.19 
     780    434.21591    162964.37    72.251264    72.251264    36.047166          120    22628.612    23255.618   -30644.029    597.48596    466.57011    -82.23711    72.251264     62.57143    36.047166    5080.0668   -311529.06 
     790    426.99849    162966.17    72.251531    72.251531    36.047299          120    22088.878    22455.226   -31670.395      1531.83     1211.531   -339.37773    72.251531    62.571662    36.047299     4291.236   -311527.82 
     800    418.52103    162969.53    72.252027    72.252027    36.047547          120    22050.323    22473.055   -32908.672    1120.2941    1347.5931   -668.46661    72.252027    62.572091    36.047547    3871.5688   -311522.93 
     810    419.52207    162974.19    72.252715    72.252715     36.04789          120    22430.433    22322.341   -33998.167    853.42395    1088.1257   -772.79206    72.252715    62.572687     36.04789    3584.8688   -311535.65 
     820     419.0099    162980.02    72.253577    72.253577     36.04832          120    22703.157    22905.349   -33538.348    884.96141    1046.7149   -1052.3809    72.253577    62.573434     36.04832    4023.3858    -311545.6 
     830    412.60359     162987.1    72.254623    72.254624    36.048842          120    22497.582    23293.555   -33321.937    711.98432    1582.7208   -1066.0563    72.254623     62.57434    36.048842    4156.3998   -311543.82 
     840    414.73842    162995.42    72.255853    72.255854    36.049456          120    22676.612    23168.564     -33208.7    861.33462    1655.2556   -1008.1034    72.255853    62.575405    36.049456    4212.1586   -311557.75 
     850    414.08412    163004.98    72.257265    72.257266     36.05016          120    22038.601    23404.715   -32331.833    1440.2585    1283.6912   -954.78006    72.257265    62.576628     36.05016    4370.4944   -311566.15 
     860    412.07119    163015.75    72.258856    72.258857    36.050954          120    21529.571     22599.91   -32624.633    1595.5907    504.17181   -691.45972    72.258856    62.578006    36.050954    3834.9494   -311571.88 
     870    406.47333    163027.52    72.260595    72.260595    36.051822          120    20766.904    22677.361   -32081.476    1306.5331    602.38848   -2820.2877    72.260595    62.579511    36.051822    3787.5961   -311570.17 
     880    405.81461    163040.19    72.262467    72.262468    36.052756          120    20657.431     21972.98   -32837.417    802.90897    540.87547   -2445.9259    72.262467    62.581133    36.052756    3264.3314   -311577.48 
     890    403.79078    163053.55    72.264441    72.264442     36.05374          120     20448.87    21671.758   -34186.454   -283.23171     1076.686   -1315.3721    72.264441    62.582842     36.05374    2644.7249   -311582.14 
     900    398.35052    163067.36    72.266481    72.266482    36.054758          120    20469.857    21707.989   -34790.103    -177.9962     1453.315   -1047.4136    72.266481    62.584609    36.054758    2462.5807   -311579.14 
     910    398.34139    163081.52    72.268573    72.268574    36.055802          120    20552.309    22527.317   -35077.505     27.24278     1900.127   -733.15073    72.268573    62.586421    36.055802    2667.3737   -311586.72 
     920    400.12505     163096.1    72.270727    72.270727    36.056877          120    20456.189     23021.33   -34455.768    812.94313    1735.5987     -578.737    72.270727    62.588286    36.056877    3007.2504   -311596.77 
     930     397.4696    163111.19    72.272956    72.272956    36.057989          120    19955.371      23030.3   -34447.556    576.73882     1769.036   -794.98431    72.272956    62.590216    36.057989    2846.0382   -311598.29 
     940    394.12713    163126.77    72.275256    72.275256    36.059136          120    20394.227    22056.547   -32998.881    356.84597    2101.3685   -623.69487    72.275256    62.592208    36.059136    3150.6309   -311598.27 
     950    394.99819    163142.91     72.27764    72.277641    36.060326          120    21650.128    22304.335   -32922.646    614.21352    1368.5293    -809.5586     72.27764    62.594273    36.060326    3677.2723   -311605.87 
     960    392.71235    163159.79    72.280133    72.280133    36.061569          120    22058.994    22374.938    -32866.58    385.17268    1602.9583   -1232.3506    72.280133    62.596432    36.061569     3855.784    -311606.8 
     970    389.34369    163177.41    72.282734    72.282735    36.062867          120    20110.159      22155.1   -33391.465    426.87943    642.04331   -855.09228    72.282734    62.598685    36.062867    2957.9314   -311605.13 
     980    391.88686    163195.41    72.285392    72.285392    36.064193          120    19219.348    20995.238   -35625.069    117.27724     1682.858     -497.387    72.285392    62.600986    36.064193    1529.8387   -311613.93 
     990    393.14374     163213.3    72.288034    72.288034    36.065511          120    19018.522    20140.826   -35289.988     381.5183    1825.5916   -879.94909    72.288034    62.603274    36.065511    1289.7866   -311620.28 
    1000    387.93338    163230.97    72.290642    72.290643    36.066813          120    19133.624    20374.154   -35869.879    937.29282    2090.7834   -638.42709    72.290642    62.605533    36.066813    1212.6329   -311613.68 
Loop time of 303.098 on 1 procs for 1000 steps with 14848 atoms

Performance: 0.285 ns/day, 84.194 hours/ns, 3.299 timesteps/s
100.0% CPU use with 1 MPI tasks x no OpenMP threads

MPI task timing breakdown:
Section |  min time  |  avg time  |  max time  |%varavg| %total
---------------------------------------------------------------
Pair    | 235.16     | 235.16     | 235.16     |   0.0 | 77.59
Bond    | 0.00019312 | 0.00019312 | 0.00019312 |   0.0 |  0.00
Kspace  | 10.854     | 10.854     | 10.854     |   0.0 |  3.58
Neigh   | 50.338     | 50.338     | 50.338     |   0.0 | 16.61
Comm    | 0.44713    | 0.44713    | 0.44713    |   0.0 |  0.15
Output  | 0.010594   | 0.010594   | 0.010594   |   0.0 |  0.00
Modify  | 6.1806     | 6.1806     | 6.1806     |   0.0 |  2.04
Other   |            | 0.1081     |            |       |  0.04

Nlocal:    14848 ave 14848 max 14848 min
Histogram: 1 0 0 0 0 0 0 0 0 0
Nghost:    46859 ave 46859 max 46859 min
Histogram: 1 0 0 0 0 0 0 0 0 0
Neighs:    1.00833e+07 ave 1.00833e+07 max 1.00833e+07 min
Histogram: 1 0 0 0 0 0 0 0 0 0

Total # of neighbors = 10083294
Ave neighs/atom = 679.101
Ave special neighs/atom = 0
Neighbor list builds = 184
Dangerous builds = 0
PPPM initialization ...
  using 12-bit tables for long-range coulomb (../kspace.cpp:321)
  G vector (1/distance) = 0.202604
  grid = 36 50 24
  stencil order = 5
  estimated absolute RMS force accuracy = 0.000997675
  estimated relative force accuracy = 6.92847e-05
  using double precision FFTs
  3d grid and FFT values/proc = 65395 43200
Setting up Verlet run ...
  Unit style    : metal
  Current step  : 0
  Time step     : 0.001
Per MPI rank memory allocation (min/avg/max) = 151.5 | 151.5 | 151.5 Mbytes
Step Temp Volume Cella Cellb Cellc CellGamma Pxx Pyy Pzz Pxy Pxz Pyz Lx Ly Lz Press PotEng 
       0    387.93338    163230.97    72.290642    72.290643    36.066813          120    19145.425    20386.671   -35863.455     938.0552    2090.7512   -638.47253    72.290642    62.605533    36.066813    1222.8803   -311613.51 
      10    386.22608    163248.44    72.293221    72.293221    36.068099          120    20149.444    21080.269    -35394.98    1165.5677    1947.4989   -44.448068    72.293221    62.607766    36.068099    1944.9113   -311613.44 
      20    385.87672    163265.94    72.295804    72.295804    36.069388          120     20342.23    21272.901   -34586.372    1005.4633    1360.7712    156.83017    72.295804    62.610003    36.069388    2342.9196    -311615.3 
      30    386.90312    163283.63    72.298415    72.298415     36.07069          120    19448.163     21308.56   -33241.162    152.05214     2030.464    604.86273    72.298415    62.612264     36.07069    2505.1869    -311619.7 
      40    390.44067    163301.55     72.30106    72.301061     36.07201          120    18486.514    20510.883   -33580.569   -109.69858    2020.4659    432.60196     72.30106    62.614556     36.07201    1805.6096   -311628.53 
      50    387.64294    163319.48    72.303706    72.303706     36.07333          120    18422.313    19657.915   -35010.762    512.56332     1273.549   -19.784413    72.303706    62.616847     36.07333    1023.1556   -311623.88 
      60    387.97155    163337.14    72.306312    72.306312     36.07463          120    19147.842    19613.056   -34779.843    490.51826     675.2523     607.9041    72.306312    62.619104     36.07463    1327.0184   -311625.54 
      70    389.19491    163354.61    72.308889     72.30889    36.075916          120    19573.626    19268.264    -35014.14    27.433662    991.47532    388.70928    72.308889    62.621336    36.075916    1275.9167   -311628.21 
      80     387.5388     163371.9     72.31144    72.311441    36.077189          120    19849.827      18102.9   -34605.764   -170.15642    1734.3141    -174.3868     72.31144    62.623545    36.077189    1115.6542   -311625.07 
      90    387.99308    163388.95    72.313956    72.313956    36.078444          120    19313.807     19040.29   -35281.466   -302.01646    2168.9361    352.26935    72.313956    62.625723    36.078444    1024.2105   -311625.49 
     100    384.77289    163405.75    72.316434    72.316435    36.079681          120    19585.303    19377.039   -35885.065   -510.18846    2419.2017    561.92559    72.316434     62.62787    36.079681    1025.7589   -311617.53 
     110    390.33697    163422.26     72.31887     72.31887    36.080896          120    18623.842     18491.03   -37432.199    615.88209    2252.9765     403.1918     72.31887    62.629979    36.080896   -105.77571   -311626.19 
     120    390.05098    163438.15    72.321214    72.321214    36.082065          120    18083.026     18388.54   -37528.836     1361.761    2283.4917    388.30684    72.321214    62.632009    36.082065   -352.42307   -311623.56 
     130    389.47392    163453.32    72.323452    72.323452    36.083182          120    18004.105    17759.261   -36433.909    799.00514    1970.7643    431.30425    72.323452    62.633947    36.083182   -223.51415   -311620.19 
     140    393.33202    163467.85    72.325594    72.325594     36.08425          120    18136.764    18160.636   -36885.524    642.43478    1735.1112    483.16313    72.325594    62.635802     36.08425   -196.04107   -311624.71 
     150    392.33456    163481.77    72.327648    72.327648    36.085275          120    19299.856    18097.924   -37107.826    527.97986     989.9829    455.87467    72.327648    62.637581    36.085275    96.651367   -311619.65 
     160    392.91297    163495.22     72.32963    72.329631    36.086264          120    19601.922     18431.34   -36427.793    536.49761    311.29718    508.90263     72.32963    62.639298    36.086264    535.15655   -311617.12 
     170    392.92898    163508.37     72.33157    72.331571    36.087232          120    19589.921    18719.753   -35839.537    1537.9345    616.81896    496.99145     72.33157    62.640978    36.087232    823.37882   -311613.92 
     180    391.88531    163521.37    72.333487    72.333488    36.088189          120    19856.818    19375.876   -35776.596    1654.1647    464.37959   -356.09418    72.333487    62.642638    36.088189    1152.0329   -311608.77 
     190    398.75605    163534.33    72.335398    72.335399    36.089142          120    19980.382    19643.637   -36318.549    1591.7929    1059.5143    229.06993    72.335398    62.644293    36.089142    1101.8231   -311618.09 
     200    399.55048    163547.24    72.337301    72.337302    36.090091          120    19447.781    19706.767   -36526.118    1283.4385    1909.9326    355.26886    72.337301    62.645941    36.090091    876.14338   -311615.12 
     210    400.02887    163560.02    72.339185    72.339185    36.091031          120    19270.968    19229.867   -36819.802    769.76801    1877.6952    404.83844    72.339185    62.647572    36.091031    560.34434   -311611.82 
     220    398.95548    163572.52    72.341028    72.341029    36.091951          120     19570.03    18015.197   -37784.536    80.846597    2103.3457    -456.0013    72.341028    62.649169    36.091951   -66.436161   -311605.55 
     230    400.07653    163584.62    72.342811    72.342812     36.09284          120    19468.039    19537.469   -37088.793    145.67442     1550.177   -1081.2909    72.342811    62.650713     36.09284    638.90486   -311604.39 
     240    399.83943    163596.52    72.344566    72.344567    36.093716          120    19394.836     20397.46   -35576.082    128.16841    942.46222   -891.71187    72.344566    62.652233    36.093716    1405.4049   -311600.44 
     250    405.83228    163608.55    72.346339     72.34634    36.094601          120    19031.709    21199.581   -34295.713     768.9274    844.23901    -895.3217    72.346339    62.653768    36.094601    1978.5257   -311608.57 
     260    405.36086    163620.87    72.348156    72.348156    36.095507          120    18777.915    20845.325   -35863.221    525.69184    466.56048   -279.16576    72.348156    62.655341    36.095507    1253.3399   -311603.75 
     270     402.2251    163633.23    72.349976    72.349977    36.096415          120    18825.216    18883.943   -37772.894    798.75664    109.01503    473.79975    72.349976    62.656918    36.096415   -21.245079   -311594.06 
     280    401.23525    163645.16    72.351736    72.351736    36.097293          120    17597.016    18260.622   -37823.263      103.556   -435.01319    217.78043    72.351736    62.658442    36.097293    -655.2086   -311589.12 
     290    407.18568    163656.44    72.353397    72.353398    36.098122          120    18128.495    17433.613   -37811.473   -1107.7086    83.244373    622.50233    72.353397    62.659881    36.098122   -749.78823   -311597.93 
     300    405.63932    163667.09    72.354966    72.354967    36.098905          120    18312.438    19274.472   -37241.393   -1064.2457    640.51984    661.96981    72.354966     62.66124    36.098905     115.1723   -311591.48 
     310    409.80737    163677.38    72.356483    72.356483    36.099661          120    17815.359    19217.672   -36631.744   -993.77034    1538.5264    875.57694    72.356483    62.662553    36.099661    133.76235   -311596.48 
     320    410.07865    163687.38    72.357956    72.357957    36.100397          120    18280.995    18723.701   -36319.567   -920.39328    1688.3311    584.52121    72.357956    62.663829    36.100397    228.37621   -311594.86 
     330    406.13405    163697.11     72.35939     72.35939    36.101112          120    18277.524    18366.657   -36378.591   -395.49569    1235.4463    -325.0399     72.35939     62.66507    36.101112    88.530305   -311585.85 
     340    413.12188    163706.54     72.36078     72.36078    36.101805          120    18474.613    18310.813   -36645.953   -49.631755    955.11153    -458.1457     72.36078    62.666274    36.101805    46.490999   -311597.97 
     350     407.1166    163715.69    72.362128    72.362129    36.102478          120    18532.537    18444.624   -36849.487   -229.62027    947.57428     111.4734    72.362128    62.667442    36.102478     42.55781   -311585.37 
     360    408.44907    163724.53     72.36343     72.36343    36.103127          120    18057.386    18336.332   -37869.021    57.842518    1167.6011    171.13324     72.36343    62.668569    36.103127   -491.76779   -311587.75 
     370    408.63235    163732.88    72.364661    72.364661    36.103741          120    17084.183    18054.391   -37565.024    165.44045    887.44521   -138.83208    72.364661    62.669635    36.103741   -808.81677   -311587.54 
     380    409.50985    163740.64    72.365804    72.365805    36.104312          120    16999.348    18266.849   -38516.772   -83.513239    600.40729   -1097.1301    72.365804    62.670625    36.104312   -1083.5252    -311588.9 
     390    407.24954    163747.73    72.366848    72.366849    36.104833          120    16878.718    17771.151   -38215.335   -234.95691    755.55748   -392.28549    72.366848    62.671529    36.104833   -1188.4885   -311584.88 
     400    407.74146    163754.13    72.367792    72.367792    36.105303          120    16949.897    17702.241   -37743.787    -116.5345    1351.8338    411.07215    72.367792    62.672347    36.105303   -1030.5497   -311585.78 
     410    412.68526    163759.92    72.368644    72.368645    36.105729          120    17704.948    17572.451   -38202.554   -524.92455    1033.2359    755.14811    72.368644    62.673085    36.105729   -975.05163   -311596.38 
     420    407.40566    163765.17    72.369417    72.369417    36.106114          120    17608.138    18075.771   -37536.231   -929.59621    1164.2228    377.47889    72.369417    62.673754    36.106114   -617.44065   -311588.11 
     430    412.08303       163770    72.370129     72.37013     36.10647          120    17350.324    17592.374   -36078.027   -196.56929    1929.1059    24.445354    72.370129    62.674371     36.10647   -378.44309   -311598.79 
     440    407.27877     163774.5    72.370792    72.370792      36.1068          120    16491.795    17456.243   -36963.306   -400.30806    1945.7672   -238.62371    72.370792    62.674945      36.1068   -1005.0895   -311592.14 
     450    407.49985    163778.48    72.371378    72.371379    36.107093          120    16534.749    17899.677   -38485.497   -60.249804    1709.6513   -155.21548    72.371378    62.675453    36.107093   -1350.3571   -311594.91 
     460    406.31207    163781.83    72.371871    72.371872    36.107339          120    16757.146    17850.423   -38321.923   -31.223014    1318.2044   -509.56665    72.371871     62.67588    36.107339   -1238.1181   -311595.26 
     470    404.72639    163784.58    72.372277    72.372277    36.107541          120    17216.934    17422.586   -38672.027   -511.99625    1056.8563   -664.94229    72.372277    62.676231    36.107541   -1344.1692   -311595.14 
     480    407.42193    163786.72    72.372591    72.372591    36.107698          120    16517.671     17035.76   -38817.848   -627.63513    1582.4568   -908.74895    72.372591    62.676503    36.107698   -1754.8055   -311603.12 
     490    407.95694    163788.13    72.372799    72.372799    36.107802          120     16809.08    17130.002   -38699.324    52.200382    2509.2864   -784.20777    72.372799    62.676683    36.107802   -1586.7471   -311607.27 
     500    401.26078     163788.9    72.372913    72.372914    36.107859          120    16987.582    17947.606    -37276.66   -142.00377    1913.0292   -607.20094    72.372913    62.676782    36.107859   -780.49081   -311597.27 
     510    404.54112    163789.33    72.372975    72.372976     36.10789          120    17189.761    18284.593   -37051.345   -30.507393    1859.4638   -46.287043    72.372975    62.676836     36.10789   -525.66398   -311607.54 
     520    400.37208    163789.53    72.373005    72.373006    36.107905          120    17292.949    18553.289   -36752.504    29.577358    1613.0411    472.39558    72.373005    62.676862    36.107905   -302.08846   -311602.85 
     530    403.10238    163789.59    72.373014    72.373014    36.107909          120    16948.606    18183.635   -36506.027   -485.75923    1319.5649   -82.376205    72.373014    62.676869    36.107909   -457.92843   -311612.34 
     540    402.93409    163789.46    72.372995    72.372996      36.1079          120    17422.294    17503.178   -37181.847   -696.88547    1195.2722   -903.13456    72.372995    62.676853      36.1079   -752.12531   -311615.98 
     550    401.37195    163789.04    72.372934    72.372934    36.107869          120    16955.099    17684.529   -37712.965   -349.21672    1830.9679    140.29147    72.372934      62.6768    36.107869   -1024.4459   -311617.29 
     560    399.21191    163788.27     72.37282     72.37282    36.107812          120    17209.673    18583.426    -37906.89   -92.160247    1657.8648    78.644199     72.37282    62.676701    36.107812   -704.59704   -311616.94 
     570    397.41689    163787.21    72.372664    72.372665    36.107734          120    17756.476    17858.698   -38706.015   -145.53936    1185.3092   -627.63538    72.372664    62.676566    36.107734   -1030.2799    -311617.5 
     580    400.70954     163785.8    72.372456    72.372456     36.10763          120    17968.364    17019.645   -38886.033    216.01238    1133.4939   -668.58166    72.372456    62.676386     36.10763   -1299.3412   -311627.27 
     590    395.86714    163783.95    72.372183    72.372183    36.107494          120    17777.523    17684.571   -38931.318    602.02731    1792.9274   -1413.2127    72.372183    62.676149    36.107494   -1156.4083   -311621.34 
     600    392.76506    163781.73    72.371856    72.371856    36.107331          120    18204.292     18257.44   -37716.686    793.12996    1884.7744   -307.43722    72.371856    62.675866    36.107331   -418.31803   -311618.49 
     610    397.40512     163779.4    72.371514    72.371514    36.107161          120    19230.992    19114.732   -37304.961     119.2906    2047.5864   -66.201404    72.371514     62.67557    36.107161    346.92101   -311631.16 
     620    390.28649    163777.27      72.3712      72.3712    36.107004          120    18956.574    20386.654   -37586.796   -329.41304    2171.3203    202.54363      72.3712    62.675298    36.107004    585.47757   -311619.57 
     630    394.57806    163775.39    72.370922    72.370923    36.106865          120     17267.92    20159.644   -38527.658   -532.95604    1735.9763    168.81023    72.370922    62.675058    36.106865   -366.69813   -311630.71 
     640    392.46013    163773.43    72.370633    72.370634    36.106721          120    16838.921    19567.232   -39507.574   -96.999841    1768.4623    244.73764    72.370633    62.674808    36.106721   -1033.8069   -311629.45 
     650    388.87029    163771.12    72.370294    72.370294    36.106552          120    16884.623    18782.777   -40153.066    199.11433    1839.5307   -120.22088    72.370294    62.674513    36.106552    -1495.222   -311624.16 
     660    393.73948    163768.33    72.369882    72.369882    36.106346          120     16318.39    18915.917   -39509.244    137.76407    1433.0561   -489.80479    72.369882    62.674157    36.106346    -1424.979   -311635.46 
     670    394.68963    163765.07    72.369402    72.369403    36.106107          120     17083.15    18355.271    -38742.56    558.33683    1643.6574     237.7136    72.369402    62.673742    36.106107   -1101.3796   -311638.84 
     680    387.80466    163761.49    72.368875    72.368876    36.105844          120    17274.608     18641.32    -37634.88    42.282596    1821.6982   -29.160865    72.368875    62.673285    36.105844   -572.98426   -311627.09 
     690    388.49076    163757.78    72.368329     72.36833    36.105572          120    16982.985    19305.313    -36769.52   -692.28263    1667.0362   -277.99814    72.368329    62.672812    36.105572   -160.40747   -311628.86 
     700    392.91905    163754.11    72.367787    72.367788    36.105301          120    17596.746    18879.152   -36511.354    394.40622    2444.6757   -510.06894    72.367787    62.672343    36.105301   -11.818554   -311637.78 
     710    389.55603    163750.53    72.367261    72.367262    36.105039          120    17432.099    18929.558   -36554.212     754.8441    2730.8005    364.13103    72.367261    62.671887    36.105039   -64.185174   -311630.91 
     720    388.99059    163747.03    72.366745    72.366746    36.104781          120    17884.418    17861.315   -37111.038    616.29498    2131.5625    681.60311    72.366745     62.67144    36.104781   -455.10181   -311629.65 
     730    393.48963    163743.47     72.36622    72.366221     36.10452          120    18087.045    17561.904   -37331.185    699.70331    1780.8263     637.7569     72.36622    62.670986     36.10452    -560.7452      -311638 
     740    392.78581    163739.77    72.365675    72.365676    36.104248          120    17505.047    17437.933   -38567.626    604.96378    2382.0904    1288.0826    72.365675    62.670514    36.104248   -1208.2152   -311635.58 
     750    398.50047    163735.74    72.365082    72.365083    36.103952          120     17640.94    17645.196   -38319.726    849.60773    2142.5799    878.71434    72.365082        62.67    36.103952    -1011.197    -311644.8 
     760    395.72815    163731.46    72.364451    72.364451    36.103637          120    17557.325    18105.473   -37148.835    764.78796     1855.514    484.08066    72.364451    62.669453    36.103637   -495.34558   -311638.55 
     770    394.79598     163727.1    72.363809    72.363809    36.103316          120    18076.336    17769.674   -36542.968    432.03251    1545.2465    89.926953    72.363809    62.668897    36.103316   -232.31946   -311635.49 
     780    394.70277    163722.74    72.363166    72.363167    36.102996          120    17674.112    17303.056   -37415.835    818.55987    924.20405    68.132826    72.363166    62.668341    36.102996   -812.88906   -311633.17 
     790    391.22109     163718.2    72.362497    72.362498    36.102662          120    17937.421    17006.379     -37998.5    985.97501    2148.6311   -547.67189    72.362497    62.667762    36.102662    -1018.233   -311624.25 
     800    395.44414    163713.39    72.361789    72.361789    36.102309          120    17632.258    17207.532   -37479.274    108.78228    2452.7935   -436.53812    72.361789    62.667148    36.102309   -879.82794   -311630.89 
     810    396.16414    163708.36    72.361048    72.361049    36.101939          120    17941.628    17522.876   -38081.828    346.46476    2827.2162    348.32579    72.361048    62.666507    36.101939   -872.44135   -311629.73 
     820    395.08203    163703.13    72.360277    72.360277    36.101554          120    18233.355    17421.091   -38771.167    694.19006    1761.7502    885.66283    72.360277    62.665838    36.101554    -1038.907   -311624.16 
     830    398.90345    163697.66    72.359471    72.359471    36.101152          120    18394.859    18036.527   -38421.949    298.85331    1258.0583    1075.7565    72.359471    62.665141    36.101152   -663.52092   -311629.44 
     840        397.9     163692.1    72.358653    72.358653    36.100744          120    18200.182    19163.957   -36674.859   -150.47973    1665.4718    439.24608    72.358653    62.664432    36.100744    229.76006   -311624.52 
     850    399.02685    163686.76    72.357865    72.357866    36.100351          120    18414.371    19446.541   -36263.747    80.019463    1252.0772    544.91622    72.357865     62.66375    36.100351    532.38826   -311623.81 
     860    400.29871    163681.77     72.35713    72.357131    36.099984          120    19467.751    19542.644   -36249.567   -3.9360368    2242.7228    431.33747     72.35713    62.663113    36.099984    920.27619   -311623.32 
     870    398.99282    163677.28    72.356468    72.356469    36.099654          120    19007.378    19808.611   -35592.711    359.03389    2052.5752    832.23033    72.356468     62.66254    36.099654    1074.4258   -311618.25 
     880    402.60415    163673.31    72.355883    72.355884    36.099362          120     18985.95    19005.576   -35793.167    745.43389    1777.8898    228.98783    72.355883    62.662034    36.099362    732.78614   -311622.46 
     890    406.51437    163669.77    72.355361    72.355362    36.099102          120    19660.445    19452.729   -35437.688    860.93287    1920.0475   -962.53632    72.355361    62.661582    36.099102    1225.1623   -311627.11 
     900    405.49449     163666.8    72.354923    72.354924    36.098883          120    19625.192    20237.423   -34672.267    113.81282    2192.9937   -932.28964    72.354923    62.661202    36.098883    1730.1163    -311622.6 
     910     402.1723    163664.53     72.35459    72.354591    36.098717          120    19410.479    19657.422   -35336.478     405.5995     1570.066   -534.07408     72.35459    62.660914    36.098717    1243.8074   -311614.55 
     920    401.28615    163662.82    72.354337    72.354338    36.098591          120      18872.4     19800.95   -36740.633    999.26634    595.02819    -864.3464    72.354337    62.660695    36.098591    644.23904   -311610.65 
     930    404.15383    163661.38    72.354126    72.354127    36.098486          120    18098.732    18934.719   -37672.843    187.36595    684.49294     -950.227    72.354126    62.660512    36.098486   -213.13042   -311613.64 
     940    403.22316    163659.91    72.353909     72.35391    36.098377          120     18708.82    17372.148   -37940.686    582.22296    1139.5418    230.07234    72.353909    62.660324    36.098377   -619.90611   -311610.67 
     950    405.57704    163658.28    72.353668    72.353668    36.098257          120    19143.579    17967.624   -37668.994    875.72814    1429.7519    890.85642    72.353668    62.660115    36.098257   -185.93032   -311612.93 
     960    406.95853     163656.6     72.35342    72.353421    36.098133          120    18144.668    18934.002   -37565.765    521.53536    1935.1829    161.39645     72.35342    62.659901    36.098133   -162.36491   -311613.95 
     970    405.77557    163654.92    72.353173    72.353174     36.09801          120    17261.605    19333.747   -36720.769    32.310975    2106.3732   -551.11329    72.353173    62.659687     36.09801   -41.805799   -311610.41 
     980    405.25167    163653.27    72.352929     72.35293    36.097889          120    16988.242     19863.52   -36794.886    51.197878    2052.1863   -745.88665    72.352929    62.659476    36.097889    18.958364      -311608 
     990    407.57889    163651.67    72.352695    72.352696    36.097772          120    17232.627    20966.353    -36868.36    534.58749    1237.5499   -1058.2803    72.352695    62.659273    36.097772    443.54006   -311611.28 
    1000    409.73436    163650.29    72.352491    72.352492     36.09767          120    19129.485    20018.809   -36724.426    381.31466    873.35808   -318.10573    72.352491    62.659096     36.09767    807.95602    -311614.6 
    1010    406.79059    163649.22    72.352333    72.352334    36.097591          120    18998.247    19963.334   -36722.513    581.70023    1275.6994   -555.16232    72.352333    62.658959    36.097591    746.35594   -311608.77 
    1020    410.51871    163648.49    72.352225    72.352226    36.097537          120    18844.319    20890.323    -35929.52    347.14122    1130.7392   -231.65319    72.352225    62.658866    36.097537    1268.3741   -311616.73 
    1030    406.15953    163648.25     72.35219    72.352191     36.09752          120     19021.74    20893.071   -36095.389    158.87291    1517.3161   -300.94364     72.35219    62.658836     36.09752    1273.1408   -311608.33 
    1040    404.00159    163648.52    72.352231    72.352231     36.09754          120     18927.12    21592.198   -35496.224    35.191843    1591.8391   -113.84377    72.352231     62.65887     36.09754    1674.3645   -311604.94 
    1050    409.02836    163649.43    72.352365    72.352365    36.097607          120    19705.131    21762.632    -34800.35   -151.79139    1175.9949   -183.20346    72.352365    62.658987    36.097607    2222.4712    -311615.3 
    1060    404.13631    163651.18    72.352622    72.352622    36.097735          120    20477.586    21576.309   -34446.382   -135.50094    1209.6954   -296.65621    72.352622    62.659209    36.097735    2535.8378   -311606.91 
    1070    403.30409    163653.84    72.353015    72.353015    36.097931          120    20746.477    20836.675   -34270.294   -430.48774     1503.814   -1044.8182    72.353015    62.659549    36.097931    2437.6192   -311606.54 
    1080    403.58584    163657.36    72.353532    72.353533    36.098189          120    20073.372    20616.758   -35934.183   -490.03283    1111.5739   -1165.7192    72.353532    62.659998    36.098189    1585.3157   -311608.87 
    1090    406.12264    163661.39    72.354127    72.354128    36.098486          120    19640.372    19211.959   -36829.768    -352.3079    1158.6878   -417.06438    72.354127    62.660513    36.098486    674.18751   -311616.11 
    1100    407.61821    163665.58    72.354744    72.354745    36.098794          120    18482.977     18555.92   -37511.826   -341.70555    1307.7428   -533.56363    72.354744    62.661047    36.098794   -157.64291    -311621.3 
    1110    403.92017    163669.66    72.355345    72.355346    36.099094          120    18707.496    19254.613   -37261.377   -67.660212    1234.8257    -420.3177    72.355345    62.661568    36.099094    233.57713   -311615.93 
    1120    405.78275    163673.71    72.355942    72.355942    36.099391          120    18336.892      19620.3    -36553.23   -425.53642    969.04628   -667.58808    72.355942    62.662084    36.099391    467.98716   -311621.45 
    1130    404.61646     163677.8    72.356545    72.356545    36.099692          120    18102.618    19444.104   -37049.727   -286.49719    620.31099   -631.14573    72.356545    62.662607    36.099692     165.6651   -311621.66 
    1140    401.28849    163681.89    72.357147    72.357148    36.099993          120    18749.361    19265.819   -35633.592    504.42786    1311.2151    404.28744    72.357147    62.663128    36.099993    793.86251   -311618.52 
    1150    406.26601    163686.17    72.357778    72.357779    36.100308          120    19517.771    19718.775   -35603.362    431.73238    301.77565    178.35878    72.357778    62.663675    36.100308    1211.0611    -311630.8 
    1160    403.04967    163690.81    72.358462    72.358463    36.100649          120    19031.316    20529.749   -36147.187    325.04541    1312.3863    55.661939    72.358462    62.664267    36.100649    1137.9594   -311627.27 
    1170    400.66296    163695.76    72.359192    72.359192    36.101013          120    17475.342    19679.313    -35208.07    547.00381    966.12833    -394.5642    72.359192    62.664899    36.101013    648.86168    -311625.4 
    1180    403.05096    163700.84    72.359939     72.35994    36.101386          120    17104.814    19248.799   -36635.776    145.89999    878.58216   -722.19199    72.359939    62.665546    36.101386   -94.054451   -311632.79 
    1190    396.30613    163705.76    72.360664    72.360665    36.101747          120    17418.975    18541.537   -38284.515    49.471336    477.39801   -665.74834    72.360664    62.666174    36.101747   -774.66778   -311622.88 
    1200    396.54586    163710.26    72.361327    72.361328    36.102078          120    16764.726    18469.481   -39036.987    124.77157    26.658288   -805.35181    72.361327    62.666748    36.102078   -1267.5933   -311626.22 
    1210    395.43606    163714.16    72.361903    72.361904    36.102366          120    16405.335    18344.698   -38207.977    685.83638      351.829   -230.06814    72.361903    62.667247    36.102366    -1152.648    -311626.8 
    1220    398.11222    163717.52    72.362398    72.362399    36.102613          120    17159.475    18130.216   -38095.967    511.23858    366.42143   -816.40152    72.362398    62.667676    36.102613   -935.42538   -311634.88 
    1230    394.43155    163720.48    72.362834    72.362834     36.10283          120    18200.747    18693.167   -36103.996    403.30427    955.28004   -837.67312    72.362834    62.668053     36.10283    263.30609   -311629.86 
    1240    398.93251    163723.44     72.36327    72.363271    36.103048          120     18698.57    19379.273   -34763.239   -57.163571    573.60019   -284.52261     72.36327    62.668431    36.103048    1104.8678   -311640.59 
    1250    395.36896    163726.75    72.363758    72.363759    36.103291          120    18712.114    20485.675   -34423.281   -372.67285   -94.313653    337.75705    72.363758    62.668853    36.103291    1591.5026   -311635.65 
    1260     395.0074    163730.56    72.364318    72.364319    36.103571          120    19015.895    19844.389   -35797.942   -91.576741    545.39005    663.86474    72.364318    62.669339    36.103571    1020.7806   -311637.32 
    1270    398.20219    163734.66    72.364923    72.364923    36.103872          120    18206.233    19226.541   -37108.897   -114.14226     1204.871    1465.8078    72.364923    62.669862    36.103872    107.95901   -311645.54 
    1280    396.81898    163738.73    72.365522    72.365522    36.104171          120    17556.728    18912.332   -37267.348   -780.97136    1424.8683     907.8517    72.365522    62.670381    36.104171    -266.0959   -311644.72 
    1290    397.03894    163742.61    72.366094    72.366095    36.104457          120    17911.901    18861.322   -37706.736   -200.07464    1699.2194    517.01008    72.366094    62.670876    36.104457   -311.17077   -311646.44 
    1300    394.57234    163746.29    72.366636    72.366637    36.104727          120    17747.602    19729.576   -37388.909    17.536033    1469.5876    868.05026    72.366636    62.671346    36.104727    29.423078   -311642.99 
    1310    395.82686    163749.92     72.36717    72.367171    36.104993          120     18375.04    20630.064   -36514.172     216.8223    1577.8078   -211.72948     72.36717    62.671808    36.104993    830.31087   -311646.63 
    1320    391.60089    163753.74    72.367734    72.367734    36.105275          120    18689.295    19768.354   -35657.718   -27.831664    1240.8601    80.876958    72.367734    62.672297    36.105275    933.31009   -311639.56 
    1330    392.72795    163757.79     72.36833    72.368331    36.105572          120    17725.583     18426.76   -36240.527    394.42678    1811.4765   -188.43206     72.36833    62.672813    36.105572   -29.394789   -311643.01 
    1340     390.6457    163761.75    72.368913    72.368914    36.105863          120    17353.023    18185.653   -37495.392     1056.626    1507.7181   -533.36507    72.368913    62.673318    36.105863   -652.23836   -311639.57 
    1350    391.49944    163765.41    72.369452    72.369453    36.106132          120     18391.25    18162.614    -37202.62    641.27424    676.68043   -474.84836    72.369452    62.673785    36.106132   -216.25203   -311641.57 
    1360    392.39264    163768.87    72.369962    72.369963    36.106387          120    18685.876    18182.682   -37027.381    1189.9346      1296.18   -620.66415    72.369962    62.674227    36.106387   -52.940911   -311643.18 
    1370    397.06823    163772.24    72.370459     72.37046    36.106634          120    18978.968    18180.994   -36158.604    1519.7459    1453.1427   -1158.2783    72.370459    62.674657    36.106634      333.786    -311651.5 
    1380    392.71759    163775.67    72.370964    72.370965    36.106886          120    19187.462     18777.39   -35702.495    849.06712    1663.9897   -756.20888    72.370964    62.675094    36.106886    754.11889   -311641.86 
    1390    391.76921    163779.32    72.371501    72.371502    36.107154          120    18385.496    19573.607   -35147.254    341.43477    1839.7111    40.301846    72.371501    62.675559    36.107154    937.28305   -311639.02 
    1400     395.4324    163783.21    72.372074    72.372075     36.10744          120    18331.646    19116.471   -36355.094   -67.959996    1344.9115    756.97986    72.372074    62.676055     36.10744    364.34121   -311644.78 
    1410     395.0085     163787.2    72.372662    72.372663    36.107733          120    18656.016    19627.175   -36101.612   -1.3480546    1661.7125    661.97528    72.372662    62.676564    36.107733    727.19273   -311642.55 
    1420    393.51501    163791.34    72.373272    72.373272    36.108038          120    17998.639    19357.776   -36305.179    316.44962    1869.9731    887.06201    72.373272    62.677092    36.108038    350.41203   -311638.32 
    1430    398.67758    163795.52    72.373888    72.373888    36.108345          120    18325.462    18774.043   -37397.584     156.6021     647.5597     384.7708    72.373888    62.677626    36.108345   -99.359902   -311646.63 
    1440     396.3946    163799.58    72.374485    72.374485    36.108643          120     17732.56    19291.711   -37728.056    326.77325    495.23392   -432.21359    72.374485    62.678143    36.108643   -234.59522    -311640.2 
    1450    395.00987    163803.46    72.375057    72.375058    36.108929          120    18326.286    19748.862   -37207.915   -430.87195    446.79446   -219.68925    72.375057    62.678639    36.108929    289.07772   -311635.84 
    1460    395.86315    163807.35    72.375631    72.375631    36.109214          120    18370.962    20001.588   -36960.016      28.9572     1015.967    -213.9327    72.375631    62.679135    36.109214    470.84496   -311634.86 
    1470    396.05311    163811.33    72.376216    72.376217    36.109507          120    19413.611    19345.043   -37684.843    441.15615    1092.9306    -983.8116    72.376216    62.679643    36.109507    357.93711   -311633.02 
    1480    399.25767    163815.37     72.37681    72.376811    36.109803          120    18300.475    19179.471   -36024.589     709.8157    1575.3244   -919.94665     72.37681    62.680157    36.109803     485.1191   -311636.69 
    1490    398.90993    163819.49    72.377418    72.377418    36.110106          120    17875.865    19577.262   -36222.143    805.34975    1675.6297   -932.86095    72.377418    62.680683    36.110106    410.32814   -311633.56 
    1500      398.598    163823.67    72.378034    72.378034    36.110413          120    18470.181    19154.597   -37200.145    864.51127    1507.7903   -1193.8307    72.378034    62.681217    36.110413    141.54393   -311630.51 
    1510    401.98374    163827.82    72.378644    72.378645    36.110718          120    18448.229    18455.073   -37015.637    429.42671    1117.3681   -987.46359    72.378644    62.681745    36.110718   -37.445111   -311634.69 
    1520    405.52719    163831.86     72.37924    72.379241    36.111015          120    18667.117    18223.195   -36609.717    625.54057    883.04441   -82.799385     72.37924    62.682261    36.111015      93.5321   -311639.12 
    1530    404.22537    163835.85    72.379827    72.379827    36.111308          120     18298.97     18007.62   -36231.349    221.31656    1244.3035    61.606181    72.379827    62.682769    36.111308    25.080131   -311634.27 
    1540    399.42002    163839.73    72.380399      72.3804    36.111594          120    17975.391    17644.801    -37101.75    233.68826    697.54306    158.87482    72.380399    62.683265    36.111594   -493.85259   -311622.64 
    1550     405.4045    163843.37    72.380935    72.380935    36.111861          120    18181.045    18428.099   -37870.184    508.64591    577.63823   -1072.8936    72.380935    62.683729    36.111861   -420.34655   -311632.23 
    1560      399.421    163846.78    72.381437    72.381437    36.112111          120    18570.762    19276.337   -37470.469    332.70968    1286.1888   -1071.5276    72.381437    62.684164    36.112111    125.54325   -311618.67 
    1570    404.67588    163850.13     72.38193     72.38193    36.112357          120    17624.647    18774.014   -36227.218      -707.91    1473.3015   -1606.3206     72.38193    62.684591    36.112357    57.147818   -311627.44 
    1580    404.65615    163853.43    72.382416    72.382416      36.1126          120    18060.786    19035.517   -36850.589   -925.90378    1498.6543   -1443.8036    72.382416    62.685012      36.1126    81.904647   -311625.49 
    1590    404.82159    163856.65     72.38289     72.38289    36.112836          120    18006.412    17922.239   -38085.456   -605.26341    1597.8507   -864.17802     72.38289    62.685422    36.112836   -718.93498   -311623.84 
    1600    406.39929    163859.56    72.383318    72.383318     36.11305          120    18196.222    18069.643   -38134.058   -433.50975    2039.6288    2.9925454    72.383318    62.685793     36.11305   -622.73111   -311625.83 
    1610    406.86501    163862.18    72.383704    72.383705    36.113243          120    17748.732    18898.864   -36555.448   -187.56422    2249.2978    235.00371    72.383704    62.686127    36.113243    30.716121    -311625.7 
    1620    406.55683    163864.75    72.384083    72.384083    36.113431          120    18271.056    19146.537   -36147.339    287.58916    910.28545    1099.3916    72.384083    62.686455    36.113431    423.41799   -311623.96 
    1630     404.2416    163867.41    72.384475    72.384475    36.113627          120    18074.906    19604.666   -35940.933   -125.56793    194.73443    1233.1568    72.384475    62.686795    36.113627    579.54632   -311619.43 
    1640    410.47945    163870.22    72.384889    72.384889    36.113833          120    18036.547    19580.956   -36057.807   -265.47381    677.69591    242.69782    72.384889    62.687153    36.113833    519.89863    -311631.1 
    1650    402.02785    163873.21    72.385329    72.385329    36.114053          120    19014.042    20238.596   -35998.548    200.25665    1094.5775   -335.15046    72.385329    62.687534    36.114053    1084.6966   -311614.89 
    1660    408.99926    163876.52    72.385816    72.385816    36.114296          120    17841.687    20362.078   -35718.558   -52.614319    1577.0957    -309.1914    72.385816    62.687956    36.114296    828.40231   -311627.87 
    1670    404.62815    163880.08     72.38634    72.386341    36.114558          120    17741.492    20157.874     -36240.1   -230.16578    1521.3168   -669.45563     72.38634     62.68841    36.114558    553.08867   -311620.01 
    1680     407.4689    163883.79    72.386886    72.386887     36.11483          120    18782.404    19079.397   -36159.179    579.19016    1003.5612     -1164.31    72.386886    62.688883     36.11483      567.541   -311626.21 
    1690     405.5914    163887.62    72.387451    72.387451    36.115112          120    18237.538    18919.056   -36378.313    468.24625    1237.1278   -1308.2805    72.387451    62.689372    36.115112    259.42728   -311623.33 
    1700    402.67903    163891.46    72.388015    72.388016    36.115393          120    16730.819    18579.322    -36817.49     909.3852    1651.6445   -1033.8069    72.388015    62.689861    36.115393   -502.44926   -311618.53 
    1710    408.54019    163895.02    72.388539     72.38854    36.115655          120    16387.471    17772.589    -37054.28    636.18499     532.7795   -1000.9399    72.388539    62.690314    36.115655   -964.73978   -311630.97 
    1720    398.38382    163898.14    72.388999       72.389    36.115884          120    17301.091    18202.895    -37819.07    30.790493    507.67439   -1207.3936    72.388999    62.690713    36.115884   -771.69485    -311613.2 
    1730    406.10381    163900.89    72.389403    72.389404    36.116086          120    17731.304    18542.519   -37847.577    153.70032   -83.354361   -617.81916    72.389403    62.691063    36.116086   -524.58468   -311630.37 
    1740    401.26885    163903.36    72.389767    72.389768    36.116267          120     17712.62    18652.519    -37837.92   -128.02753    926.83739   -1055.7787    72.389767    62.691378    36.116267   -490.92705   -311622.74 
    1750    403.64781    163905.55    72.390089     72.39009    36.116428          120    16605.229    17623.913   -38079.138    -532.3523     1495.578   -355.33823    72.390089    62.691657    36.116428   -1283.3324    -311628.9 
    1760    402.58307     163907.2    72.390333    72.390334     36.11655          120    16432.982    17252.356   -39179.676   -31.783244    1392.0094   -666.51541    72.390333    62.691868     36.11655   -1831.4461   -311628.74 
    1770     405.1302    163908.12    72.390468    72.390469    36.116617          120     16672.82    16914.014   -39674.208    157.45145    1759.9696   -1317.2026    72.390468    62.691985    36.116617    -2029.125   -311635.53 
    1780    401.04289    163908.28    72.390492    72.390492    36.116629          120     17438.18    17593.642   -38779.192    364.14278    2216.5818   -1919.8059    72.390492    62.692005    36.116629   -1249.1235   -311630.12 
    1790    404.90423    163907.96    72.390444    72.390445    36.116605          120    17244.052    18811.774   -36843.997    378.69144    2143.6042   -1381.7552    72.390444    62.691964    36.116605     -262.724   -311639.46 
    1800    402.67379    163907.53    72.390382    72.390382    36.116574          120    18534.009    19117.379   -37002.887    494.99308     1625.954    -1281.868    72.390382     62.69191    36.116574     216.1669   -311637.98 
    1810    397.80485    163907.19    72.390331    72.390331    36.116549          120    18966.213    18549.137   -37734.146    231.13154    1570.3204   -1398.9108    72.390331    62.691866    36.116549   -72.932088   -311630.72 
    1820    402.96466    163906.82    72.390277    72.390278    36.116522          120    18635.389     18188.02    -37686.16   -80.220975    982.92547   -258.81919    72.390277     62.69182    36.116522   -287.58336   -311643.12 
    1830    397.88933    163906.36    72.390209     72.39021    36.116488          120    18251.763    18691.806   -37475.492    727.22456    1144.2843   -398.31526    72.390209    62.691761    36.116488    -177.3078   -311635.52 
    1840    397.02511    163905.84    72.390132    72.390133     36.11645          120    18376.199    19604.148   -38067.799    1090.4391    876.66159   -409.99129    72.390132    62.691694     36.11645   -29.150824   -311635.86 
    1850    398.04176    163905.31    72.390054    72.390055    36.116411          120    18285.193    20107.505   -38281.268    621.49946      607.327   -722.68741    72.390054    62.691627    36.116411    37.143425   -311640.42 
    1860    397.99788    163904.79    72.389977    72.389978    36.116372          120    18248.529    19136.636   -37842.643    129.43996    910.66811   -917.51842    72.389977     62.69156    36.116372   -152.49285   -311642.57 
    1870    398.86285    163904.21    72.389892    72.389893     36.11633          120    17885.535    18880.213   -37252.904    97.241861    1268.1835   -472.79012    72.389892    62.691486     36.11633   -162.38526   -311646.23 
    1880    395.31049    163903.59    72.389801    72.389802    36.116284          120    17888.234    18790.056   -37014.844    532.72781    1201.7033   -745.92966    72.389801    62.691407    36.116284    -112.1846   -311641.48 
    1890    396.58577    163902.91    72.389701    72.389701    36.116234          120    18829.217     17841.18   -38338.362    933.83586    727.65345   -51.096782    72.389701     62.69132    36.116234   -555.98822   -311646.22 
    1900    394.86029    163902.08    72.389579     72.38958    36.116174          120    19277.499    18131.975   -36412.282     207.2173     851.3471   -184.83241    72.389579    62.691215    36.116174    332.39747   -311644.26 
    1910    395.97654    163901.36    72.389473    72.389474    36.116121          120    19183.365    19274.371   -37409.156    532.69371    1282.0784   -368.10394    72.389473    62.691123    36.116121    349.52651   -311648.17 
    1920    398.28463    163900.79    72.389389     72.38939    36.116079          120    19393.051    19236.682    -38561.64     277.8154    698.50302   -341.23629    72.389389    62.691051    36.116079    22.698137   -311654.52 
    1930    398.40145    163900.22    72.389305    72.389306    36.116037          120    18358.488    18521.282   -39543.962   -178.46461     489.4224   -1040.8538    72.389305    62.690978    36.116037    -888.0639   -311656.29 
    1940    395.94402    163899.38    72.389181    72.389182    36.115975          120    18105.837    17921.991   -38885.032    374.88495    1120.2493   -1546.8613    72.389181     62.69087    36.115975   -952.40133   -311652.43 
    1950    396.47581    163898.17    72.389003    72.389004    36.115886          120    17343.997    17151.418   -38056.333    764.77594    704.62023   -1318.7252    72.389003    62.690717    36.115886    -1186.973   -311654.26 
    1960    391.57245    163896.53    72.388762    72.388763    36.115766          120    17290.741    17482.481   -37742.812    659.31901    666.86156   -1006.3323    72.388762    62.690508    36.115766   -989.86335   -311645.52 
    1970    397.09248    163894.55     72.38847     72.38847     36.11562          120    17560.352    18566.816   -37811.254    498.89465    665.25208    -1278.021     72.38847    62.690254     36.11562   -561.36182   -311656.97 
    1980    396.35105    163892.35    72.388146    72.388147    36.115459          120    16943.966    18952.092   -38475.236    430.38116    790.12125   -949.51286    72.388146    62.689974    36.115459   -859.72588   -311655.82 
    1990    392.18369    163889.89    72.387785    72.387785    36.115278          120    16520.564    19190.004   -38126.776    467.75858    902.20461   -683.01174    72.387785    62.689661    36.115278    -805.4024   -311648.24 
    2000    397.65181    163887.16    72.387383    72.387383    36.115078          120    16537.991    18639.475   -38972.641    664.70683    1368.6884   -669.01504    72.387383    62.689313    36.115078   -1265.0583   -311659.09 
    2010    392.95567    163884.04    72.386924    72.386924    36.114849          120    16992.726    17964.587   -38354.154    567.23054    2028.5526   -252.32319    72.386924    62.688915    36.114849   -1132.2805   -311649.58 
    2020    390.87089    163880.52    72.386404    72.386405     36.11459          120    17080.975    18173.796   -39752.589    1045.3831    2478.1392   -971.00319    72.386404    62.688465     36.11459   -1499.2728   -311645.42 
    2030    395.51997     163876.5    72.385812    72.385813    36.114294          120    16921.933     17757.15   -38477.281    86.587808    2652.1557   -1064.7344    72.385812    62.687953    36.114294   -1266.0657   -311653.55 
    2040    392.74982    163872.09    72.385164    72.385164    36.113971          120    17918.477    18406.806   -37453.327    125.73599    1492.6327   -1585.4892    72.385164    62.687391    36.113971   -376.01475   -311647.62 
    2050    394.57251    163867.61    72.384504    72.384504    36.113641          120    18580.489    18744.475    -36678.23    624.35945    1002.4976    -1559.256    72.384504     62.68682    36.113641    215.57818   -311649.83 
    2060    395.88474    163863.29    72.383867    72.383868    36.113324          120    18493.082     19131.27   -36517.784    667.10045    1864.5335   -314.57996    72.383867    62.686268    36.113324    368.85602   -311651.06 
    2070    394.10433     163859.2    72.383265    72.383266    36.113024          120    18835.595    19321.474   -36040.726    271.34459    1938.2277   -518.10079    72.383265    62.685747    36.113024    705.44795   -311645.97 
    2080    398.40514    163855.48    72.382718    72.382718     36.11275          120    19354.611    20258.268    -36014.07    158.31466    1402.7696   -398.08722    72.382718    62.685273     36.11275    1199.6029   -311652.73 
    2090    396.63018    163852.29    72.382248    72.382248    36.112516          120    19432.081    20532.773   -36167.016    519.68493    1041.1974   -41.980818    72.382248    62.684866    36.112516     1265.946   -311647.16 
    2100    399.33947    163849.64    72.381858    72.381858    36.112321          120     19146.02    20489.952   -36494.128    587.15733    760.70947    369.50229    72.381858    62.684528    36.112321    1047.2813   -311650.74 
    2110    398.84122    163847.44    72.381534    72.381534     36.11216          120     19324.82    20074.394   -37667.892    45.527888    1443.5917    587.11278    72.381534    62.684248     36.11216     577.1075   -311648.02 
    2120    399.10851    163845.54    72.381253    72.381254     36.11202          120    19808.512    20157.034   -38026.487    480.70661    1579.3329   -413.53787    72.381253    62.684005     36.11202    646.35264   -311645.95 
    2130    400.36268    163843.92    72.381016    72.381016    36.111901          120     19870.56    20465.563   -37866.745    344.38473    1680.5144   -401.21979    72.381016    62.683799    36.111901    823.12598   -311646.61 
    2140     401.0286    163842.69    72.380834    72.380835    36.111811          120    20688.717    20019.244   -37074.358   -55.583222    1406.2979   -337.40452    72.380834    62.683642    36.111811    1211.2011   -311645.73 
    2150    398.50157    163841.91    72.380719     72.38072    36.111753          120    20330.013    18549.452   -37016.258    255.94832    1976.1183    182.05505    72.380719    62.683542    36.111753    621.06868    -311638.7 
    2160    401.08553    163841.39    72.380642    72.380643    36.111715          120    18983.632    18685.769   -36528.285    921.45682     1907.722     189.7786    72.380642    62.683475    36.111715    380.37213   -311642.39 
    2170    403.75987    163841.05    72.380592    72.380593     36.11169          120    18914.531    19219.021   -36165.043     1140.863    1807.8136   -170.03169    72.380592    62.683432     36.11169    656.16942   -311645.25 
    2180    403.72778    163840.96    72.380579     72.38058    36.111683          120    19699.865    18843.308   -37018.647    622.30553    889.56797   -721.32185    72.380579    62.683421    36.111683    508.17536   -311643.08 
    2190    399.24163    163841.07    72.380596    72.380596    36.111692          120    19046.481    19111.852   -37047.976    182.61832    1039.2373   -856.01639    72.380596    62.683435    36.111692    370.11904   -311632.36 
    2200    402.16659    163841.32    72.380632    72.380633     36.11171          120    19610.166    18851.388   -37372.236   -128.81823    1301.3932   -382.61973    72.380632    62.683467     36.11171     363.1062   -311636.76 
    2210    402.18793    163841.72    72.380691    72.380691    36.111739          120    20479.336     18565.94   -36875.317    550.90233    2196.6246    -1429.378    72.380691    62.683518    36.111739    723.31949   -311635.48 
    2220    407.92591    163842.38    72.380789    72.380789    36.111788          120    19915.867    19635.517   -36720.172    749.82314    1863.2568   -804.54149    72.380789    62.683602    36.111788    943.73757   -311644.81 
    2230    402.21235    163843.39    72.380938    72.380938    36.111862          120     19438.88    20565.501   -36657.546    1030.6225    659.76792   -148.20915    72.380938    62.683731    36.111862    1115.6119   -311632.05 
    2240    404.70988    163844.82    72.381148    72.381148    36.111967          120    19616.592    20637.221   -35646.923    742.61695    750.20384   -200.58109    72.381148    62.683913    36.111967    1535.6301   -311636.73 
    2250    402.98667    163846.81    72.381441    72.381441    36.112113          120    19151.963    21427.266   -35823.525    40.503105    269.16269   -433.85767    72.381441    62.684167    36.112113    1585.2349   -311632.88 
    2260    404.38997    163849.33    72.381812    72.381812    36.112298          120    17979.431     20320.74   -36769.275    141.54818      1179.33   -938.10796    72.381812    62.684488    36.112298    510.29875   -311634.67 
[...]
   99200    401.31089     164464.2     72.47224    72.472241    36.157415          120    19812.884    17725.004   -39054.268     1786.443    2821.7856    927.18749     72.47224    62.762802    36.157415   -505.45956   -311705.38 
   99210    402.62344    164464.13    72.472231    72.472231     36.15741          120    20007.804    17441.233   -39859.287    1207.0322    2486.1103    1526.0196    72.472231    62.762793     36.15741   -803.41666   -311706.47 
   99220    405.45913    164463.78    72.472179     72.47218    36.157384          120    19936.212    18469.339   -38970.749    1065.7418    2571.2692    1098.3145    72.472179    62.762749    36.157384    -188.3995   -311710.17 
   99230    403.03233    164463.35    72.472116    72.472116    36.157352          120    19969.857    18616.086   -38206.595    1186.6603    2230.3864    1033.8314    72.472116    62.762694    36.157352     126.4495   -311704.51 
   99240    406.27757    164462.93    72.472054    72.472055    36.157321          120    19043.554    17606.916   -38279.239     631.2111    2176.7006    814.66464    72.472054     62.76264    36.157321   -542.92317    -311710.1 
   99250    403.21442    164462.33    72.471965    72.471965    36.157277          120     19001.22     17080.48   -38239.267     716.4251    1224.0199    466.52917    72.471965    62.762563    36.157277   -719.18907   -311704.06 
   99260    405.94893    164461.42    72.471832    72.471833    36.157211          120    18977.889    17332.075   -39210.191    598.84893    962.20373   -369.63073    72.471832    62.762448    36.157211   -966.74226   -311708.38 
   99270    403.98341    164460.16    72.471647    72.471648    36.157119          120    19435.853    17895.348   -38757.245    136.53899    1859.0514   -676.47129    72.471647    62.762288    36.157119   -475.34785   -311704.56 
   99280    401.71402    164458.68     72.47143    72.471431     36.15701          120     18710.59    17876.617   -38908.766    109.63349    2215.7317   -82.720239     72.47143      62.7621     36.15701   -773.85292   -311700.44 
   99290    401.48093    164456.89    72.471166    72.471167    36.156878          120     17876.06    17305.333   -39070.106    106.84756    1941.7899   -431.09417    72.471166    62.761872    36.156878   -1296.2378   -311700.46 
   99300    405.63861     164454.6     72.47083     72.47083    36.156711          120    18376.742    17619.902   -39285.568    70.890374    2031.3574    309.75218     72.47083     62.76158    36.156711   -1096.3083   -311708.52 
   99310    403.65386    164451.87     72.47043     72.47043    36.156511          120    18959.101    17949.567   -38838.257    670.42271     1767.104    812.04485     72.47043    62.761234    36.156511   -643.19645   -311704.98 
   99320    401.51411    164448.86    72.469987    72.469987     36.15629          120     19373.32    17572.827   -39223.264     822.8029    2293.0631    1356.3345    72.469987     62.76085     36.15629   -759.03918   -311701.85 
   99330    406.31965    164445.51    72.469495    72.469495    36.156045          120    19190.456    17113.706   -39733.272    811.39265    2459.7928    387.91431    72.469495    62.760424    36.156045   -1143.0369   -311711.71 
   99340    407.79268    164441.75    72.468942    72.468943    36.155769          120    20193.863    17467.921   -39036.369    812.52263    2185.5649   -193.49268    72.468942    62.759945    36.155769   -458.19508   -311715.42 
   99350    405.05995    164437.76    72.468357    72.468358    36.155477          120    20127.215    17634.853   -39018.076    929.90903    1988.0954    245.85045    72.468357    62.759439    36.155477   -418.66905   -311710.88 
   99360    403.66671    164433.61    72.467747    72.467748    36.155173          120    19380.416    17896.798    -38348.06    642.42055    1110.3206   -782.66983    72.467747    62.758911    36.155173   -356.94874   -311709.45 
   99370    404.35653    164429.31    72.467116    72.467116    36.154858          120    19372.515    18825.949   -38825.371    660.26854    1338.6468    -250.1029    72.467116    62.758364    36.154858   -208.96893    -311712.2 
   99380    396.80367    164424.91    72.466469     72.46647    36.154535          120    19421.041    18013.085    -39068.36    589.28604    2516.5924    1042.3149    72.466469    62.757804    36.154535   -544.74453   -311698.67 
   99390    402.61562    164420.27    72.465787    72.465787    36.154195          120    19328.189    17565.494   -39964.307    717.40069    2268.5213    907.24834    72.465787    62.757213    36.154195   -1023.5415   -311710.16 
   99400    403.79288    164415.22    72.465045    72.465046    36.153825          120    19707.801     17683.63   -39524.618    728.95077    2157.1093    471.79137    72.465045    62.756571    36.153825   -711.06263   -311712.92 
   99410    396.04806    164409.92    72.464266    72.464267    36.153436          120    20265.161    19618.495   -38096.884    538.45891    1974.9652     933.9818    72.464266    62.755896    36.153436    595.59029   -311699.29 
   99420    407.14028    164404.77     72.46351     72.46351    36.153059          120    20227.311    19172.478   -37809.181    380.69452    2330.8642    847.14477     72.46351    62.755241    36.153059    530.20261   -311721.52 
   99430    401.54519    164399.84    72.462786    72.462787    36.152698          120    21091.737    18442.115   -37777.254    377.00944    2471.6804    642.52358    72.462786    62.754614    36.152698    585.53259   -311711.05 
   99440    401.90654     164395.1     72.46209     72.46209     36.15235          120    20270.664    17922.097   -38958.046    1102.1185    2217.3456    947.81727     72.46209    62.754011     36.15235   -255.09503   -311712.69 
   99450     400.7108     164390.3    72.461384    72.461384    36.151998          120    20303.909     18217.11   -38813.301    667.49545    2024.1375    289.68693    72.461384      62.7534    36.151998   -97.427318      -311711 
   99460    400.23282    164385.41    72.460665    72.460666    36.151639          120    20124.926     18008.28   -39195.032    1020.0045    2019.2358    482.40329    72.460665    62.752777    36.151639   -353.94207   -311710.73 
   99470    401.23267    164380.42    72.459932    72.459932    36.151274          120    20550.727    18360.506   -37735.453    759.60339    1765.5635    789.23286    72.459932    62.752142    36.151274    391.92641   -311713.49 
   99480    400.73117    164375.54    72.459215    72.459215    36.150916          120    20504.447     19086.45   -38235.086    124.01995    1127.1348    979.54515    72.459215    62.751521    36.150916    451.93709   -311713.25 
   99490    402.69148    164370.83    72.458523    72.458524    36.150571          120    20347.091    19089.388   -37942.275    287.62436    942.80837    1025.3749    72.458523    62.750923    36.150571    498.06765   -311716.98 
   99500    402.41899    164366.31    72.457858    72.457859    36.150239          120     20052.97    18469.474   -37492.704     587.2002    1617.8462    857.18848    72.457858    62.750346    36.150239    343.24658   -311717.19 
   99510     400.1039    164361.91    72.457212    72.457212    36.149916          120    20039.971    17919.882   -37432.494    1164.6345    1540.2889    856.10122    72.457212    62.749787    36.149916    175.78676   -311712.72 
   99520    400.85293    164357.58    72.456577    72.456577      36.1496          120    20305.001    17597.602    -36703.09    976.89401    2149.0937    823.77134    72.456577    62.749237      36.1496    399.83786   -311714.61 
   99530    401.46519    164353.37    72.455958    72.455959    36.149291          120    20981.706    18047.435   -38432.887    1572.8816    2606.1908    618.94566    72.455958    62.748701    36.149291    198.75111   -311716.12 
   99540    401.85238    164349.25    72.455352    72.455353    36.148989          120     21267.78    18603.636   -37557.837    1063.1237    1988.4237    241.57928    72.455352    62.748176    36.148989    771.19329   -311717.68 
   99550    398.19167    164345.37    72.454782    72.454782    36.148704          120    21717.991    18319.925   -38542.315    632.12558    2001.8555   -16.276629    72.454782    62.747682    36.148704    498.53337   -311711.09 
   99560    395.87623    164341.71    72.454244    72.454245    36.148436          120     21705.86     18180.06   -37569.012    436.97376    2790.4104    315.38317    72.454244    62.747217    36.148436    772.30249   -311707.16 
   99570    401.71102    164338.32    72.453745    72.453746    36.148187          120    21643.236    19216.484   -38673.007   -125.11002    2861.9728    627.74765    72.453745    62.746785    36.148187    728.90411   -311718.77 
   99580    398.46956    164335.21    72.453288    72.453289    36.147959          120    21132.094      19613.8   -37931.613    213.80284    2184.0753    1404.3861    72.453288    62.746389    36.147959    938.09408   -311713.11 
   99590    400.18082    164332.44    72.452882    72.452882    36.147756          120    20488.239    19455.209   -37315.465    922.34498     1254.361    880.12164    72.452882    62.746037    36.147756    875.99436   -311717.48 
   99600    398.52569    164330.03    72.452527    72.452528    36.147579          120     20844.35    19528.962   -36517.737    895.72536    913.34127    1467.4803    72.452527     62.74573    36.147579    1285.1916   -311714.35 
   99610    398.32571     164328.1    72.452243    72.452244    36.147438          120    20969.296    20237.604   -37080.005    49.209884    783.12518    1920.3769    72.452243    62.745484    36.147438     1375.632   -311714.19 
   99620    401.46123     164326.7    72.452038    72.452039    36.147335          120     21372.64    19875.695   -37920.132    412.22939     1132.166    1542.7284    72.452038    62.745306    36.147335    1109.4007   -311720.46 
   99630    399.38604    164325.74    72.451896    72.451897    36.147265          120     21047.65    19727.616   -38351.304    503.82221    480.12445    545.49028    72.451896    62.745183    36.147265    807.98751   -311716.74 
   99640    400.62067    164325.11    72.451805    72.451805    36.147219          120    21159.873     19783.93   -37954.528    473.75816    991.35414    283.69631    72.451805    62.745104    36.147219     996.4249   -311718.94 
   99650    398.34947    164324.87    72.451768    72.451769    36.147201          120    20574.147    19522.187   -37643.277    812.68022    2504.0236    223.93554    72.451768    62.745073    36.147201    817.68574   -311715.28 
   99660    399.73472    164324.91    72.451774    72.451775    36.147204          120    21029.471    18010.949   -38718.779    599.97723    2627.5726   -157.41624    72.451774    62.745078    36.147204    107.21374   -311718.37 
   99670    398.54663       164325    72.451788    72.451789    36.147211          120    20144.301    18394.157     -38782.8    1000.5954    2169.6895   -265.62458    72.451788     62.74509    36.147211   -81.447055    -311716.7 
   99680    395.59281    164325.08      72.4518    72.451801    36.147217          120    20048.675    18854.892   -37733.095   -140.99454     1869.164   -472.67638      72.4518      62.7451    36.147217    390.15754   -311712.08 
   99690    401.24106    164325.34    72.451838    72.451838    36.147235          120    20590.475    19581.907   -35548.009   -411.43362    2039.3723    264.20246    72.451838    62.745133    36.147235    1541.4579   -311722.46 
   99700    401.36615    164326.14    72.451956    72.451957    36.147294          120    20853.217     19814.25   -36525.971    685.89249    1713.4033    301.16349    72.451956    62.745235    36.147294     1380.499   -311722.73 
   99710    401.78283     164327.5    72.452155    72.452156    36.147394          120    20925.568    18769.957   -37155.269    1355.7733     2105.801    282.34786    72.452155    62.745408    36.147394    846.75205   -311724.13 
   99720    396.47908    164329.21    72.452407    72.452408    36.147519          120    20756.987    18506.641     -38428.1    692.19766    1839.7402    1364.7527    72.452407    62.745626    36.147519    278.50935   -311713.98 
   99730     397.5825       164331     72.45267    72.452671    36.147651          120    20148.972    17550.109   -41113.276    791.07762     1417.977    1310.1736     72.45267    62.745854    36.147651   -1138.0649   -311716.08 
   99740    398.42029     164332.4    72.452876    72.452877    36.147753          120    20587.429    17388.874   -40858.214     682.8318    2068.4778    436.24179    72.452876    62.746032    36.147753   -960.63689   -311718.35 
   99750    397.91138    164333.43    72.453027    72.453027    36.147828          120    20509.655    18385.644   -39367.479    490.34165    2300.4246   -379.35964    72.453027    62.746162    36.147828   -157.39329   -311717.45 
   99760    397.30329     164334.4    72.453169     72.45317      36.1479          120      20084.7    19323.799    -37129.32    383.76754    2433.9322    120.51989    72.453169    62.746286      36.1479    759.72649   -311716.56 
   99770    395.31851    164335.63     72.45335    72.453351     36.14799          120    19814.562    19022.235   -37240.378    684.21353     2639.043    522.69773     72.45335    62.746443     36.14799    532.13949   -311713.21 
   99780    400.06632    164337.07    72.453562    72.453563    36.148096          120      19918.8    18273.755   -37493.177    672.52609    3164.6602    924.80597    72.453562    62.746626    36.148096    233.12584   -311722.45 
   99790    399.87642    164338.62    72.453789     72.45379    36.148209          120    20180.112    17488.099   -36856.311    1257.2381    2910.8995    698.76129    72.453789    62.746823    36.148209    270.63352   -311722.77 
   99800     401.4003    164340.27    72.454032    72.454033     36.14833          120    19996.739    18235.688   -38305.046    1196.0767    2373.9612    739.00388    72.454032    62.747033     36.14833   -24.206675   -311725.63 
   99810    399.08796    164341.94    72.454278    72.454278    36.148453          120     19786.56    18421.378   -38327.396    665.45786    2831.8652    980.09081    72.454278    62.747246    36.148453   -39.819199      -311721 
   99820    397.94486    164343.63    72.454525    72.454526    36.148576          120    20812.784    18913.077   -38212.491    637.48048     1846.421    747.86555    72.454525     62.74746    36.148576    504.45623   -311719.16 
   99830     396.4139    164345.51    72.454802    72.454803    36.148714          120    20599.182    18895.568   -37784.122     1007.208     1240.402    416.43962    72.454802      62.7477    36.148714    570.20908   -311715.94 
   99840    397.67246    164347.59    72.455108    72.455109    36.148867          120    19560.303    18599.508   -38259.504     1105.252    2453.1268    1050.6884    72.455108    62.747965    36.148867   -33.231021   -311718.88 
   99850     397.8145     164349.7    72.455418    72.455418    36.149021          120    19818.186    18935.616   -38390.979    1382.5009    2952.7851    678.14254    72.455418    62.748233    36.149021    120.94088   -311719.02 
   99860    399.17748    164351.88    72.455738    72.455739    36.149181          120    19972.617    19614.652   -37378.891    1943.8443    3019.7461   -113.41196    72.455738    62.748511    36.149181    736.12613   -311721.42 
   99870    397.56219    164354.33    72.456099    72.456099    36.149361          120    20381.048    18665.447   -36422.281    1137.4327    3818.0766    1189.4598    72.456099    62.748823    36.149361    874.73816      -311718 
   99880    397.32621    164357.11    72.456507    72.456508    36.149565          120    20268.421    18004.366   -37020.852    429.20537    2809.1516    198.09098    72.456507    62.749177    36.149565     417.3116   -311717.43 
   99890    397.60402    164360.06     72.45694    72.456941    36.149781          120    20009.031    17680.879   -38306.747    361.55368    2192.8736   -658.91661     72.45694    62.749552    36.149781    -205.6122   -311717.71 
   99900    398.98603    164362.95    72.457365    72.457366    36.149993          120    19690.691    18327.679   -40001.113    400.35143    2049.4548   -407.35712    72.457365     62.74992    36.149993   -660.91435   -311719.22 
   99910     400.2459    164365.62    72.457758    72.457758    36.150189          120    19941.303    18349.813   -39339.497    505.06109    1979.5007    990.29127    72.457758     62.75026    36.150189   -349.46014    -311720.8 
   99920    399.84717    164368.16    72.458131    72.458131    36.150375          120    20418.014    18549.464   -38752.328    857.07747    1810.9917    810.37455    72.458131    62.750583    36.150375    71.716592   -311719.26 
   99930    396.80332    164370.75    72.458512    72.458512    36.150565          120    21029.312    19471.505   -37932.972    974.66797    1944.7834    511.52354    72.458512    62.750912    36.150565    855.94832   -311713.03 
   99940    402.16892    164373.65    72.458938    72.458938    36.150778          120    21378.765    19194.516   -37545.464    1215.2147     1580.772    596.03387    72.458938    62.751282    36.150778     1009.272   -311721.49 
   99950    397.29659    164376.95    72.459422    72.459422    36.151019          120     20967.06    18713.768   -36888.297    1456.9449    833.17702    228.13267    72.459422    62.751701    36.151019    930.84407   -311711.32 
   99960    398.70062    164380.62    72.459961    72.459962    36.151288          120    20479.796    18070.818   -35874.622    1848.3765    2197.9807    375.00402    72.459961    62.752168    36.151288    891.99756   -311713.17 
   99970    398.62731    164384.62    72.460549    72.460549    36.151581          120    19555.636    17858.884   -37178.921    1857.9985    2187.8857    34.460303    72.460549    62.752677    36.151581    78.532972   -311711.93 
   99980    399.99091    164388.68    72.461145    72.461146    36.151879          120    19447.417    18328.143   -38822.338     996.7197    1628.3892    381.39681    72.461145    62.753193    36.151879   -348.92583   -311713.14 
   99990    400.10254    164392.59    72.461721    72.461721    36.152166          120     18406.59    18703.127   -39707.303    1288.8951    1073.8374    43.145584    72.461721    62.753692    36.152166   -865.86207   -311712.54 
  100000    403.75205    164396.22    72.462253    72.462254    36.152432          120    18383.254     19040.08   -39696.547    1288.7125    2319.2979   -280.71714    72.462253    62.754153    36.152432   -757.73762   -311719.06 
Loop time of 29315.1 on 1 procs for 100000 steps with 14848 atoms

Performance: 0.295 ns/day, 81.431 hours/ns, 3.411 timesteps/s
100.0% CPU use with 1 MPI tasks x no OpenMP threads

MPI task timing breakdown:
Section |  min time  |  avg time  |  max time  |%varavg| %total
---------------------------------------------------------------
Pair    | 23445      | 23445      | 23445      |   0.0 | 79.98
Bond    | 0.016444   | 0.016444   | 0.016444   |   0.0 |  0.00
Kspace  | 1072.8     | 1072.8     | 1072.8     |   0.0 |  3.66
Neigh   | 4137.2     | 4137.2     | 4137.2     |   0.0 | 14.11
Comm    | 39.365     | 39.365     | 39.365     |   0.0 |  0.13
Output  | 1.1082     | 1.1082     | 1.1082     |   0.0 |  0.00
Modify  | 609.85     | 609.85     | 609.85     |   0.0 |  2.08
Other   |            | 9.727      |            |       |  0.03

Nlocal:    14848 ave 14848 max 14848 min
Histogram: 1 0 0 0 0 0 0 0 0 0
Nghost:    46652 ave 46652 max 46652 min
Histogram: 1 0 0 0 0 0 0 0 0 0
Neighs:    1.00102e+07 ave 1.00102e+07 max 1.00102e+07 min
Histogram: 1 0 0 0 0 0 0 0 0 0

Total # of neighbors = 10010182
Ave neighs/atom = 674.177
Ave special neighs/atom = 0
Neighbor list builds = 15225
Dangerous builds = 0
 
All done!
Total wall time: 8:13:39
