LAMMPS (16 Mar 2018)
Reading data file ...
  triclinic box = (0 0 0) to (9.208 7.97436 18.376) with tilt (-4.604 0 0)
  1 by 1 by 1 MPI processor grid
  reading atoms ...
  116 atoms
Finding 1-2 1-3 1-4 neighbors ...
  special bond factors lj:   0          0          0         
  special bond factors coul: 0          0          0         
  0 = max # of 1-2 neighbors
  0 = max # of 1-3 neighbors
  0 = max # of 1-4 neighbors
  1 = max # of special neighbors
Replicating atoms ...
  triclinic box = (0 0 0) to (73.664 63.7949 36.752) with tilt (-36.832 0 0)
  1 by 1 by 1 MPI processor grid
  14848 atoms
Finding 1-2 1-3 1-4 neighbors ...
  special bond factors lj:   0          0          0         
  special bond factors coul: 0          0          0         
  0 = max # of 1-2 neighbors
  0 = max # of 1-3 neighbors
  0 = max # of 1-4 neighbors
  1 = max # of special neighbors
  Time spent = 0.00542283 secs
PPPM initialization ...
WARNING: System is not charge neutral, net charge = -0.2048 (../kspace.cpp:302)
  using 12-bit tables for long-range coulomb (../kspace.cpp:321)
  G vector (1/distance) = 0.201681
  grid = 36 50 24
  stencil order = 5
  estimated absolute RMS force accuracy = 0.00105653
  estimated relative force accuracy = 7.33721e-05
  using double precision FFTs
  3d grid and FFT values/proc = 65395 43200
Neighbor list info ...
  update every 1 steps, delay 0 steps, check yes
  max neighbors/atom: 2000, page size: 100000
  master list distance cutoff = 15.3
  ghost atom cutoff = 15.3
  binsize = 7.65, bins = 15 9 5
  3 neighbor lists, perpetual/occasional/extra = 3 0 0
  (1) pair morse, perpetual
      attributes: half, newton on
      pair build: half/bin/newton/tri
      stencil: half/bin/3d/newton/tri
      bin: standard
  (2) pair buck, perpetual, copy from (1)
      attributes: half, newton on
      pair build: copy
      stencil: none
      bin: none
  (3) pair lj/cut/coul/long, perpetual, copy from (1)
      attributes: half, newton on
      pair build: copy
      stencil: none
      bin: none
Setting up Verlet run ...
  Unit style    : metal
  Current step  : 0
  Time step     : 0.001
Per MPI rank memory allocation (min/avg/max) = 145.7 | 145.7 | 145.7 Mbytes
Step Temp Volume Cella Cellb Cellc CellGamma Pxx Pyy Pzz Pxy Pxz Pyz Lx Ly Lz Press PotEng 
       0           75    172711.88       73.664    73.664001       36.752          120   -210631.57    -210637.9   -281625.86    7.2050202   -1.9109798     2.549315       73.664    63.794896       36.752   -234298.44   -309191.56 
      10    252.24386    172440.26    73.625364    73.625364    36.732724          120   -213846.77   -213909.22   -261353.02    67.524008   -2.5229543   -91.615069    73.625364    63.761436    36.732724      -229703   -309603.43 
      20     493.0548    171658.25    73.513898    73.513899    36.677112          120   -211766.93   -211496.77   -199537.33     23.97906   -146.35476   -197.27011    73.513898    63.664904    36.677112   -207600.34   -310200.42 
      30    427.82931       170544    73.354491    73.354491    36.597581          120   -191151.24   -190696.14   -113959.22   -171.67959   -515.43509    -256.1304    73.354491    63.526853    36.597581   -165268.86   -310251.22 
      40    186.32945    169430.32    73.194471    73.194471    36.517745          120   -159675.95   -159390.15   -35165.989    -365.4578   -930.93099   -307.42592    73.194471    63.388272    36.517745   -118077.36   -309912.94 
      50      249.278    168525.47    73.063938    73.063939    36.452621          120   -124127.79      -123990   -1134.6542   -411.43375   -1075.8293   -487.07213    73.063938    63.275227    36.452621   -83084.147   -310096.45 
      60    575.99504    167802.52     72.95931     72.95931     36.40042          120   -90718.315   -90530.702   -34975.189    -540.8264   -1957.9118   -404.20658     72.95931    63.184616     36.40042   -72074.735   -310787.67 
      70    771.50646    167165.48    72.866867    72.866867    36.354299          120    -58618.71    -58145.84    -94953.67   -867.27696   -2524.5038   -247.99317    72.866867    63.104558    36.354299    -70572.74   -311280.66 
      80    622.12765    166559.08    72.778651    72.778652    36.310287          120   -30639.226   -30549.938      -131374    -1376.301   -2888.7172    131.70149    72.778651    63.028161    36.310287    -64187.72   -311110.24 
      90    361.08644    165975.59    72.693564    72.693565    36.267836          120   -14668.116   -14922.617   -139164.03   -1673.1683   -3517.8278    493.02512    72.693564    62.954474    36.267836   -56251.588   -310688.65 
     100     408.4242    165428.65    72.613628    72.613628    36.227955          120    2985.4907    3451.5237   -115823.05   -1589.1605   -3493.3248     347.6397    72.613628    62.885247    36.227955   -36462.012   -310837.38 
     110    561.67579    164950.47    72.543597    72.543597    36.193015          120    20294.306    21067.143   -72245.136   -1592.5584   -3206.7326    184.44183    72.543597    62.824598    36.193015   -10294.562   -311205.75 
     120    519.22303    164572.36    72.488124    72.488125    36.165339          120    26318.155    27103.512   -22679.925   -1615.4872   -3341.7162   -183.40097    72.488124    62.776558    36.165339    10247.247   -311204.83 
     130    407.50689    164303.88    72.448685    72.448685    36.145662          120    20421.615    21857.155    14197.841   -1744.9167   -3597.9641   -509.71086    72.448685    62.742402    36.145662    18825.537   -311053.65 
     140    391.49914     164130.9     72.42325    72.423251    36.132973          120    13592.903    14588.811    19759.675   -1620.5915   -3529.9946   -463.48423     72.42325    62.720375    36.132973    15980.463   -311072.65 
     150    461.28752       164023    72.407377    72.407377    36.125053          120    6693.7263    7715.4104   -10921.475   -1707.8221   -3182.6331   -217.08536    72.407377    62.706628    36.125053     1162.554    -311265.4 
     160    494.42948    163937.79    72.394836    72.394837    36.118797          120   -2905.9486   -732.73392   -50788.321   -1667.7845   -3177.3907    14.261409    72.394836    62.695768    36.118797   -18142.335   -311401.51 
     170    433.41775    163835.32     72.37975     72.37975    36.111269          120   -6846.7259   -3925.6378   -77660.517   -1270.0175   -3410.3349   -95.195565     72.37975    62.682702    36.111269   -29477.627   -311356.57 
     180    362.04804    163697.08    72.359387    72.359387     36.10111          120   -1859.5475    1125.9458   -88189.989   -926.35235   -3230.1446   -248.59589    72.359387    62.665068     36.10111   -29641.197   -311278.55 
     190    365.62649    163528.14    72.334486    72.334486    36.088687          120    4607.8478     7472.283   -78228.159   -552.02429   -2748.0392   -10.300395    72.334486    62.643503    36.088687   -22049.343      -311337 
     200    397.13641    163347.23    72.307801    72.307801    36.075373          120    8535.1465    11450.959   -53079.122   -669.99471    -2278.704   -245.17456    72.307801    62.620393    36.075373   -11031.006   -311453.76 
     210    380.39328    163176.42    72.282588    72.282589    36.062794          120    11658.302    14800.365   -27775.005   -615.55189   -2456.8403    15.468661    72.282588    62.598558    36.062794   -438.77942   -311479.52 
     220    340.11219    163033.02    72.261409    72.261409    36.052228          120    13945.868     16320.97   -12668.334   -232.23258    -2812.995   -56.703559    72.261409    62.580216    36.052228    5866.1683    -311453.1 
     230    328.10221    162923.34      72.2452      72.2452    36.044141          120    14286.604    15059.095   -13407.119   -429.26314   -3388.2572   -632.06745      72.2452    62.566179    36.044141    5312.8599   -311475.83 
     240    341.56847    162840.33    72.232928    72.232928    36.038018          120    11725.166    11525.451   -26545.205   -606.94813   -3630.0721   -634.42528    72.232928    62.555551    36.038018   -1098.1961   -311547.66 
     250    344.36509    162767.66    72.222182    72.222182    36.032657          120    8848.3716    8470.6386   -44752.047   -561.12114   -3390.2071   -964.42203    72.222182    62.546245    36.032657   -9144.3457   -311601.43 
     260    320.78076    162689.04    72.210552    72.210552    36.026854          120    9177.5873    9046.4654   -58901.248   -686.31421    -3167.677   -1021.9269    72.210552    62.536173    36.026854   -13559.065   -311603.39 
     270    294.28115    162596.76    72.196896    72.196897    36.020041          120    10823.561     11053.07   -62899.197   -1052.1374   -2867.8489   -422.42996    72.196896    62.524347    36.020041   -13674.189   -311595.17 
     280    292.16007    162492.55    72.181468    72.181469    36.012344          120    13214.402    14658.467   -55098.772   -840.05412   -2614.4654   -22.202417    72.181468    62.510986    36.012344    -9075.301   -311630.38 
     290    294.86531    162386.52    72.165765    72.165766     36.00451          120    16713.335    19229.423   -40196.122   -1099.4915   -2741.1745    134.94602    72.165765    62.497387     36.00451    -1417.788   -311676.16 
     300    286.80928    162292.61     72.15185    72.151851    35.997567          120     19250.26    21753.873   -26322.164   -1261.3617   -2778.5127   -105.77998     72.15185    62.485336    35.997567    4893.9899    -311700.4 
     310    269.67096    162220.57    72.141174    72.141174    35.992241          120    18986.678    21645.002   -17639.033   -929.19443    -3398.877   -576.19978    72.141174     62.47609    35.992241    7664.2157   -311704.95 
     320    261.47622    162172.25     72.13401    72.134011    35.988667          120    16307.082    19142.105   -17081.656   -834.92424     -3734.47    -977.2084     72.13401    62.469886    35.988667    6122.5103   -311724.03 
     330     261.6242    162141.65    72.129473    72.129474    35.986403          120     14170.33    16643.832   -23936.566   -1104.8499    -3572.182   -1082.2076    72.129473    62.465957    35.986403    2292.5322   -311757.99 
     340     257.1665    162119.23    72.126148    72.126149    35.984744          120    13570.328    15891.706   -35440.282   -568.01209   -3783.7827   -1614.4958    72.126148    62.463077    35.984744   -1992.7492   -311782.66 
     350       244.15    162096.01    72.122704    72.122704    35.983026          120     13720.71    16236.519   -44019.739    -450.2475   -3292.1206   -1792.6583    72.122704    62.460094    35.983026   -4687.5033   -311789.85 
     360    229.15014    162067.11    72.118418    72.118419    35.980888          120    14738.612    17264.138   -45355.159   -693.51965   -2983.4197   -2157.0351    72.118418    62.456383    35.980888   -4450.8031   -311790.26 
     370    225.75012    162033.57    72.113442    72.113443    35.978405          120    16542.938    19029.909   -41235.279   -688.93503   -3034.7046   -1811.0307    72.113442    62.452074    35.978405   -1887.4774   -311811.76 
     380    224.95019    162000.66     72.10856     72.10856    35.975969          120    18448.453    20443.373   -33568.057   -734.51885   -3170.3723   -1484.8785     72.10856    62.447845    35.975969    1774.5896   -311838.08 
     390    220.61441    161974.93    72.104743    72.104743    35.974065          120    18687.101    21070.377    -26098.87   -654.37535   -3345.4337   -1363.3858    72.104743    62.444539    35.974065     4552.869   -311857.26 
     400    210.66946    161960.78    72.102642    72.102643    35.973017          120    18245.077    20908.843   -21616.441   -525.39805   -3704.9736   -1259.8493    72.102642     62.44272    35.973017    5845.8262   -311864.56 
     410    206.79845    161959.22    72.102412    72.102412    35.972902          120    18180.989    20620.639   -22620.095   -731.36706   -4003.5971   -983.37346    72.102412    62.442521    35.972902    5393.8445   -311881.68 
     420    202.61226    161968.07    72.103724    72.103725    35.973557          120    17815.241    20570.027    -27119.42     -1085.78   -4322.0902   -750.93261    72.103724    62.443658    35.973557    3755.2825   -311897.89 
     430    197.27355    161982.98    72.105937    72.105937     35.97466          120    17061.579    19415.026   -33259.387   -1315.1323    -4316.246   -311.86739    72.105937    62.445574     35.97466    1072.4058   -311910.63 
     440     189.1654    161998.39    72.108223    72.108223    35.975801          120    16706.734    18389.116   -38368.479   -1269.9246   -3926.9465   -18.486124    72.108223    62.447553    35.975801   -1090.8765   -311916.85 
     450    182.16975    162010.34    72.109996    72.109997    35.976686          120    17399.968     18580.42   -40086.476    -1305.241   -3445.5124   -293.94188    72.109996    62.449089    35.976686   -1368.6961   -311923.71 
     460    178.39065    162018.59    72.111221    72.111221    35.977297          120    18863.716    18837.133   -38603.577   -884.00568   -2878.4133   -507.39578    72.111221     62.45015    35.977297   -300.90939   -311936.79 
     470    176.51841    162025.58    72.112257    72.112257    35.977814          120    19944.032    19266.628   -34270.411   -673.95024   -2587.2798   -880.87288    72.112257    62.451047    35.977814    1646.7499   -311952.57 
     480      171.739     162035.1    72.113669     72.11367    35.978518          120    20388.676    19814.779   -29298.548   -575.17091   -3343.2338   -823.80262    72.113669     62.45227    35.978518    3634.9691   -311962.01 
     490    166.43409    162050.56    72.115962    72.115963    35.979662          120    20257.022     20242.83   -27126.575   -443.79876   -3841.1122   -325.15072    72.115962    62.454256    35.979662    4457.7588   -311970.17 
     500    164.94064    162072.96    72.119286    72.119287    35.981321          120    19405.226    20586.744   -27905.938   -515.24507   -3927.5758    191.13706    72.119286    62.457135    35.981321    4028.6772   -311984.28 
     510    161.31342    162100.79    72.123413    72.123413     35.98338          120    18081.001    19817.232   -30826.095    -482.9864    -4177.587     527.1931    72.123413    62.460708     35.98338    2357.3795   -311994.18 
     520    155.76262    162130.42    72.127807    72.127808    35.985572          120        17282    18261.585   -34560.515    -336.5807   -3995.5763    418.18673    72.127807    62.464514    35.985572    327.69013   -311999.61 
     530    151.28275    162157.94    72.131888    72.131889    35.987608          120     17425.77     17441.72   -37645.964   -56.976974   -3714.0991    391.92613    72.131888    62.468048    35.987608   -926.15783   -312006.63 
     540    146.19598    162181.23    72.135342    72.135343    35.989331          120    17920.642    17604.268   -38411.258    82.241143   -3518.9067   -53.803509    72.135342    62.471039    35.989331   -962.11598    -312011.5 
     550    144.07622    162200.61    72.138215    72.138215    35.990764          120     18136.77    18047.443   -36401.756   -153.63831   -3263.2838    25.960045    72.138215    62.473527    35.990764   -72.514503    -312021.2 
     560     140.2915    162218.16    72.140817    72.140817    35.992062          120    18372.746    18774.658   -32941.738    -361.3549    -3039.864   -7.1496593    72.140817     62.47578    35.992062    1401.8888   -312027.67 
     570    137.04722    162236.78    72.143576    72.143577    35.993439          120    18569.994    19387.588   -30593.934   -405.22661   -3357.8971    152.71096    72.143576    62.478171    35.993439    2454.5495   -312034.57 
     580    134.30113    162258.39    72.146779     72.14678    35.995037          120     18446.38    19532.538   -29789.265   -504.59233     -4031.47    329.98238    72.146779    62.480944    35.995037    2729.8847   -312042.34 
     590     131.7808    162283.27    72.150467    72.150468    35.996877          120    17885.133    18958.764   -30296.098   -356.59926   -4181.0341    40.870085    72.150467    62.484138    35.996877    2182.5996   -312050.05 
     600    129.50718    162310.08     72.15444     72.15444    35.998859          120    17549.041    17594.884   -32303.353   -140.35769   -4230.9124    7.9946137     72.15444    62.487578    35.998859     946.8573   -312057.46 
     610    126.31418    162336.34    72.158331    72.158331    36.000801          120     17022.76    17180.546   -35265.009    106.80956   -3991.0907   -21.240699    72.158331    62.490948    36.000801   -353.90128   -312062.59 
     620    124.14374    162359.65    72.161784    72.161784    36.002523          120    16581.452    17022.206   -37556.652    147.30538   -3552.0576   -384.15784    72.161784    62.493939    36.002523   -1317.6648   -312069.09 
     630    121.26505     162378.4    72.164561    72.164562    36.003909          120    16317.699    16412.752   -38106.285    71.361427   -3498.7799   -754.90388    72.164561    62.496344    36.003909   -1791.9445   -312074.12 
     640    119.75725    162392.12    72.166595    72.166595    36.004924          120    16386.228    16451.296   -37343.016    -348.3234   -3400.3028   -712.30068    72.166595    62.498105    36.004924   -1501.8306    -312081.3 
     650    116.39854    162401.87    72.168039    72.168039    36.005644          120    17249.345    17267.994   -35514.528   -578.83478   -3257.7833   -642.24382    72.168039    62.499356    36.005644   -332.39626   -312084.67 
     660    114.45826    162410.17    72.169269    72.169269    36.006258          120    18277.852    17887.639   -33444.358    -331.2863   -3318.7714   -350.25241    72.169269    62.500421    36.006258    907.04437   -312090.45 
     670    112.59007    162419.38    72.170632    72.170633    36.006938          120    18052.769    17456.497   -32301.313   -99.361846   -3465.3644   -89.783962    72.170632    62.501602    36.006938    1069.3177   -312096.51 
     680     110.4233    162429.82    72.172178    72.172179    36.007709          120    17269.672    16978.565   -32661.011   -86.947404   -3699.8954    297.38692    72.172178    62.502941    36.007709    529.07518   -312101.35 
     690    108.36981    162440.34    72.173737    72.173737    36.008487          120    16330.604    16628.382   -34640.942   -30.295878     -3867.16    445.54549    72.173737     62.50429    36.008487   -560.65196   -312105.89 
     700    105.78982    162448.82    72.174993    72.174993    36.009113          120    15203.997    15784.944   -36810.792    -208.6411    -3903.904    143.71642    72.174993    62.505378    36.009113    -1940.617   -312109.22 
     710    103.81374    162452.87    72.175593    72.175593    36.009413          120    14664.058    15205.362   -37809.162   -539.78604   -3745.2607    -381.9662    72.175593    62.505897    36.009413   -2646.5805   -312113.51 
     720    102.06527    162451.52    72.175393    72.175393    36.009313          120    14987.165    15399.445   -37694.212   -486.83735   -3613.6543   -587.03065    72.175393    62.505724    36.009313   -2435.8673    -312117.8 
     730     100.0134    162445.51    72.174502    72.174503    36.008869          120    15450.638    15740.209   -36957.579   -292.73336   -3724.7198   -584.00836    72.174502    62.504953    36.008869   -1922.2441   -312121.07 
     740    97.764868    162436.24    72.173129    72.173129    36.008184          120    15816.473    16216.421   -35489.856   -495.26475   -3623.6407   -449.32829    72.173129    62.503764    36.008184   -1152.3208   -312123.81 
     750    97.195074    162425.38    72.171521    72.171522    36.007381          120    16142.523     16270.51   -34255.508   -233.49059   -3370.2085   -304.23517    72.171521    62.502371    36.007381   -614.15846   -312129.49 
     760    95.111977    162414.09    72.169848    72.169849    36.006547          120    16084.573    16282.278   -33862.017   -53.882636   -3233.7001   -229.15346    72.169848    62.500923    36.006547   -498.38865   -312132.27 
     770     93.68781    162402.67    72.168158    72.168158    36.005703          120    16361.936     16452.59   -34080.995   -45.571397   -3162.4132    -36.80147    72.168158    62.499459    36.005703   -422.15616   -312135.81 
     780    92.645454    162391.34    72.166479     72.16648    36.004866          120    16595.202    16759.947   -34018.231    23.571437    -3178.374   -251.77778    72.166479    62.498005    36.004866   -221.02766      -312140 
     790    91.203724    162380.35    72.164851    72.164852    36.004054          120    16742.386    16563.002   -34705.716    32.789121   -3659.9014   -62.191685    72.164851    62.496595    36.004054   -466.77587   -312143.52 
     800    89.659317    162369.31    72.163215    72.163216    36.003237          120    16903.265     16777.21   -35281.389   -222.79509   -4160.3516    140.37722    72.163215    62.495178    36.003237   -533.63813   -312146.16 
     810    88.397522    162358.09    72.161553    72.161554    36.002408          120     17162.33    16940.964   -35075.129   -297.39443   -4430.2848   -36.588728    72.161553    62.493739    36.002408   -323.94527   -312149.08 
     820    87.425319    162347.06    72.159919     72.15992    36.001593          120    17709.737    16693.253   -34711.859   -327.95992   -3938.4151   -74.064017    72.159919    62.492324    36.001593   -102.95637   -312152.27 
     830    86.550064     162336.7    72.158384    72.158385    36.000827          120    18029.846    16973.231   -33935.695   -400.25841   -3662.9045   -333.71704    72.158384    62.490994    36.000827    355.79423   -312155.34 
     840     85.30352    162327.79    72.157064    72.157064    36.000168          120    18166.618    17311.616   -33289.885   -483.87182   -3459.0204   -122.23261    72.157064    62.489851    36.000168    729.44953    -312157.9 
     850    84.249392    162320.97    72.156053    72.156053    35.999664          120     18507.62    17548.594   -32963.958   -637.63711   -3298.1939    -192.6643    72.156053    62.488975    35.999664    1030.7518   -312160.69 
     860    83.297541    162316.65    72.155413    72.155414    35.999345          120    18779.911    17540.247   -32958.557   -631.11234    -3700.463   -597.87195    72.155413    62.488421    35.999345    1120.5337   -312163.43 
     870    82.169606    162314.83    72.155143    72.155144     35.99921          120        18481    17850.282    -33407.13   -582.75457    -3750.202   -737.87728    72.155143    62.488188     35.99921     974.7174   -312165.35 
     880    81.548629       162315    72.155169    72.155169    35.999223          120    18005.032    17762.466   -34200.426   -512.19326    -3761.591    -520.9087    72.155169     62.48821    35.999223    522.35708   -312168.53 
     890    79.977734    162316.24    72.155352    72.155353    35.999314          120    18009.878    17524.845   -34666.902   -668.66048   -3557.2427      -366.85    72.155352    62.488369    35.999314    289.27373   -312169.63 
     900    79.263515    162318.03    72.155617    72.155618    35.999447          120    17966.939    17603.211    -34316.09   -760.97533   -3410.7639   -91.097091    72.155617    62.488598    35.999447    418.01976   -312171.81 
     910    78.526989    162320.54     72.15599    72.155991    35.999633          120    17869.632    17734.706   -33529.638    -711.4692   -3115.9604    194.19306     72.15599    62.488921    35.999633    691.56683   -312173.86 
     920    77.291293    162324.29    72.156545    72.156546     35.99991          120    18073.348    17893.881   -32680.713   -715.06058   -3118.1019    -9.631227    72.156545    62.489402     35.99991    1095.5053   -312175.16 
     930    76.884183     162329.9    72.157377    72.157377    36.000325          120      18195.2    18194.467   -32546.687   -780.46057    -3026.969    90.876639    72.157377    62.490122    36.000325    1280.9933    -312177.5 
     940    77.041484    162337.64    72.158523    72.158523    36.000896          120    17995.978    18210.965   -32481.194   -670.52883   -3010.3447   -213.62371    72.158523    62.491115    36.000896    1241.9166   -312180.87 
     950    76.144271    162347.22    72.159943    72.159944    36.001605          120    17497.971    17714.825   -33019.556   -494.71067   -3274.6337   -488.17371    72.159943    62.492344    36.001605    731.08003   -312182.22 
     960    74.754032    162357.59    72.161479     72.16148    36.002371          120    17061.881    17467.607   -34097.294   -644.44622   -3208.1847   -471.74351    72.161479    62.493675    36.002371    144.06473   -312182.32 
     970    74.622403    162367.58    72.162959    72.162959    36.003109          120    16814.206    17532.983   -34914.479   -620.05168   -3550.0453   -636.98322    72.162959    62.494956    36.003109   -189.09671   -312184.71 
     980    73.781208    162376.53    72.164285    72.164285    36.003771          120    17087.978    17376.259   -35566.298   -651.35649   -3803.7965   -669.91007    72.164285    62.496104    36.003771   -367.35353   -312185.67 
     990    73.839918    162384.17    72.165417    72.165417    36.004336          120    17261.256    17475.322   -35817.378      -767.73   -3703.0652   -641.44872    72.165417    62.497085    36.004336   -360.26663   -312187.64 
    1000    72.738545    162390.65    72.166377    72.166377    36.004815          120    17538.257    17750.025   -35162.911   -721.59956   -3221.9059   -504.82196    72.166377    62.497916    36.004815    41.790236   -312187.65 
Loop time of 369.053 on 1 procs for 1000 steps with 14848 atoms

Performance: 0.234 ns/day, 102.515 hours/ns, 2.710 timesteps/s
100.0% CPU use with 1 MPI tasks x no OpenMP threads

MPI task timing breakdown:
Section |  min time  |  avg time  |  max time  |%varavg| %total
---------------------------------------------------------------
Pair    | 302.86     | 302.86     | 302.86     |   0.0 | 82.07
Bond    | 0.00055575 | 0.00055575 | 0.00055575 |   0.0 |  0.00
Kspace  | 13.919     | 13.919     | 13.919     |   0.0 |  3.77
Neigh   | 43.663     | 43.663     | 43.663     |   0.0 | 11.83
Comm    | 0.4994     | 0.4994     | 0.4994     |   0.0 |  0.14
Output  | 0.013002   | 0.013002   | 0.013002   |   0.0 |  0.00
Modify  | 7.9185     | 7.9185     | 7.9185     |   0.0 |  2.15
Other   |            | 0.1756     |            |       |  0.05

Nlocal:    14848 ave 14848 max 14848 min
Histogram: 1 0 0 0 0 0 0 0 0 0
Nghost:    46941 ave 46941 max 46941 min
Histogram: 1 0 0 0 0 0 0 0 0 0
Neighs:    1.01337e+07 ave 1.01337e+07 max 1.01337e+07 min
Histogram: 1 0 0 0 0 0 0 0 0 0

Total # of neighbors = 10133656
Ave neighs/atom = 682.493
Ave special neighs/atom = 0
Neighbor list builds = 130
Dangerous builds = 0
PPPM initialization ...
  using 12-bit tables for long-range coulomb (../kspace.cpp:321)
  G vector (1/distance) = 0.202688
  grid = 36 48 24
  stencil order = 5
  estimated absolute RMS force accuracy = 0.000992495
  estimated relative force accuracy = 6.8925e-05
  using double precision FFTs
  3d grid and FFT values/proc = 63017 41472
Setting up Verlet run ...
  Unit style    : metal
  Current step  : 0
  Time step     : 0.001
Per MPI rank memory allocation (min/avg/max) = 152.3 | 152.3 | 152.3 Mbytes
Step Temp Volume Cella Cellb Cellc CellGamma Pxx Pyy Pzz Pxy Pxz Pyz Lx Ly Lz Press PotEng 
       0    72.738545    162390.65    72.166377    72.166377    36.004815          120    17553.542    17764.658   -35153.436   -721.67983    -3221.718   -504.86561    72.166377    62.497916    36.004815     54.92116   -312187.45 
      10    71.404593    162396.79    72.167286    72.167287    36.005268          120    18032.586    17616.879   -34365.348   -563.30736    -2906.968    -309.7567    72.167286    62.498704    36.005268     428.0393   -312186.87 
      20    71.439558    162403.31    72.168252    72.168253    36.005751          120    18162.367    17303.328   -34039.548   -457.52065   -2904.2329   -170.00843    72.168252    62.499541    36.005751    475.38258    -312188.4 
      30    71.682611    162410.34    72.169293    72.169294     36.00627          120    17946.623    17047.632   -33677.941   -464.70377   -3131.6934   -265.83777    72.169293    62.500442     36.00627    438.77131   -312190.52 
      40    71.459289    162417.77    72.170394    72.170395    36.006819          120    17783.486    16841.633   -33536.281   -240.59205   -3416.7388   -559.02418    72.170394    62.501395    36.006819    362.94575   -312191.66 
      50    71.737958    162425.38    72.171521    72.171522    36.007381          120    17331.217    16535.669   -33764.619   -309.93661   -3441.7972   -595.85315    72.171521    62.502371    36.007381    34.088888   -312193.47 
      60    71.332297    162432.57    72.172587    72.172587    36.007913          120    17109.847    16450.485   -34183.146   -509.08531   -3661.7364    -333.4946    72.172587    62.503294    36.007913   -207.60472   -312194.12 
      70    70.742442    162438.95    72.173531    72.173531    36.008384          120    17347.052    16688.581   -34472.823   -607.81964   -3707.2057   -94.213278    72.173531    62.504112    36.008384   -145.73031   -312193.72 
      80    71.087256    162444.65    72.174374    72.174375    36.008805          120    17468.303    17072.366   -34424.819    -464.1878   -3723.8796   -45.740947    72.174374    62.504842    36.008805    38.616578   -312195.23 
      90    70.135418    162450.08     72.17518     72.17518    36.009207          120    17649.668    17413.538   -34022.797    -420.0229   -3642.6864   -71.254432     72.17518     62.50554    36.009207    346.80318   -312193.97 
     100    70.304121    162455.87    72.176036    72.176037    36.009634          120    17915.329    17769.964    -33801.37   -342.60302   -3557.6689    189.32155    72.176036    62.506282    36.009634    627.97436   -312194.91 
     110    70.450816    162462.48    72.177015    72.177016    36.010123          120    17772.054    17504.267   -33481.848     -392.661   -3304.2185    388.58616    72.177015     62.50713    36.010123    598.15791   -312195.76 
     120    70.360486    162469.86    72.178108    72.178109    36.010668          120    17825.814    17102.322   -33476.035   -545.54122   -3031.8368    347.90225    72.178108    62.508076    36.010668    484.03386   -312195.92 
     130    70.578809    162477.71    72.179271    72.179272    36.011248          120    17648.218    16915.046    -33800.59   -510.76736   -3173.1181   -84.319776    72.179271    62.509083    36.011248    254.22476   -312196.31 
     140    70.133124    162485.57    72.180434    72.180435    36.011828          120    17448.075    16509.389   -34075.425    -457.6297   -3272.8025   -600.99441    72.180434     62.51009    36.011828   -39.320097   -312195.59 
     150    70.462701    162492.89    72.181518    72.181519    36.012369          120    17532.035     16217.68   -34317.249   -403.72899   -3411.7095   -511.10739    72.181518    62.511029    36.012369   -189.17764   -312195.89 
     160    70.394848    162499.34    72.182473    72.182474    36.012846          120    17075.267    16287.139   -34871.569   -607.01161   -3477.5331   -590.09619    72.182473    62.511856    36.012846   -503.05416   -312195.15 
     170     70.78318    162504.43    72.183228    72.183228    36.013222          120    16993.227    16436.953   -35118.591   -724.80286   -3495.6893   -484.30668    72.183228     62.51251    36.013222   -562.80361   -312195.06 
     180    71.177592     162508.1    72.183771    72.183771    36.013493          120    17037.454    16648.457   -35291.171   -630.02526    -3411.748   -560.30449    72.183771     62.51298    36.013493   -535.08674   -312194.93 
     190    71.578323    162510.47    72.184122    72.184122    36.013668          120    16944.743     16809.85   -35390.058   -716.84571   -3535.4405   -899.30597    72.184122    62.513284    36.013668   -545.15512   -312194.96 
     200    72.449159    162511.61     72.18429    72.184291    36.013752          120    17006.878    16483.706   -35145.519   -654.74295   -3211.3237   -656.05006     72.18429     62.51343    36.013752   -551.64506   -312195.51 
     210    72.236508    162511.58    72.184286    72.184287     36.01375          120    16813.417    16466.629    -34775.82   -424.99067   -2979.6752   -318.26008    72.184286    62.513426     36.01375   -498.59117   -312193.51 
     220    71.902475    162510.55    72.184133    72.184134    36.013674          120    16370.525    16884.932   -34687.141   -218.53564   -2889.4817    103.12004    72.184133    62.513294    36.013674   -477.22797   -312191.78 
     230    72.265308    162508.65    72.183852    72.183853    36.013533          120    16480.605    17145.849   -34577.209   -206.26231   -2768.4122    218.85791    72.183852     62.51305    36.013533   -316.91829   -312191.25 
     240    72.948456    162506.25    72.183497    72.183498    36.013357          120    16817.291     17446.36   -34350.437   -380.49413   -2974.3639    68.244266    72.183497    62.512743    36.013357    -28.92839   -312191.16 
     250    73.242683    162503.92    72.183152    72.183153    36.013184          120    17109.712    17526.088   -34090.123   -511.30695   -3341.2489   -92.388899    72.183152    62.512444    36.013184    181.89214   -312190.21 
     260     74.09775    162502.04    72.182873    72.182874    36.013045          120    17214.657    17531.188   -34459.326   -346.35354   -3387.8463    48.342535    72.182873    62.512203    36.013045    95.505993    -312190.6 
     270    74.380645    162500.44    72.182637    72.182638    36.012927          120    17363.449    17462.446   -34974.637   -78.442303   -3369.3366    -78.00778    72.182637    62.511998    36.012927   -49.580685   -312189.51 
     280     74.76175    162498.88    72.182405    72.182406    36.012812          120    17329.035    17467.482    -34835.04    -136.9084   -3315.6539   -222.64229    72.182405    62.511797    36.012812   -12.840858   -312188.59 
     290    75.521745    162497.35    72.182179     72.18218    36.012699          120    17175.304    17211.612   -34527.023   -325.52461   -3330.3677   -262.35869    72.182179    62.511602    36.012699   -46.702445   -312188.56 
     300    76.019435    162495.89    72.181963    72.181964    36.012591          120    17497.008    17335.633   -34032.364   -468.55085    -3506.031   -88.682857    72.181963    62.511414    36.012591    266.75922   -312188.36 
     310    76.342018    162495.07    72.181842    72.181842     36.01253          120    17887.325    17771.295   -33674.202   -527.29242   -3314.2388    175.23182    72.181842    62.511309     36.01253    661.47261   -312187.32 
     320    76.795617    162495.56    72.181913    72.181914    36.012566          120    17740.637    17778.901   -33470.121   -568.60407   -3424.1975     118.3374    72.181913    62.511371    36.012566    683.13869   -312186.74 
     330    76.753495    162497.35    72.182179    72.182179    36.012699          120    17492.135    17666.353   -33616.616   -687.27759   -3554.8403   -180.88692    72.182179    62.511601    36.012699    513.95724   -312185.53 
     340     77.18357    162500.03    72.182576    72.182577    36.012897          120    17459.459    17401.582   -34164.475   -581.51527   -3896.4257   -267.93469    72.182576    62.511945    36.012897    232.18848   -312185.18 
     350    77.103761    162503.07    72.183026    72.183026    36.013121          120    17649.715    17054.051   -34279.137   -594.81262   -3871.3625     -213.134    72.183026    62.512335    36.013121    141.54306   -312183.42 
     360    77.909079    162506.21    72.183491    72.183492    36.013354          120    17716.929    17029.089   -34383.179   -492.27425   -3671.9657   -266.06154    72.183491    62.512738    36.013354    120.94609   -312184.08 
     370    79.382191    162509.48    72.183975    72.183975    36.013595          120    17820.477    17752.048   -34402.691   -345.06485   -3601.2587   -131.49545    72.183975    62.513157    36.013595     389.9449   -312185.92 
     380    79.846403    162513.34    72.184547    72.184548     36.01388          120    18055.744     18235.16   -34339.397   -414.24143   -3524.2277   -193.79011    72.184547    62.513652     36.01388     650.5022    -312185.8 
     390    78.861107    162518.21    72.185268    72.185269     36.01424          120    17818.398    18016.277   -34383.236   -514.92012    -3313.184   -343.07641    72.185268    62.514277     36.01424    483.81302   -312183.02 
     400    79.720836    162523.75    72.186088    72.186088    36.014649          120    17154.581    17700.445   -34419.378   -343.24215   -3029.2659   -27.562669    72.186088    62.514986    36.014649    145.21607   -312184.83 
     410    79.950029    162529.29    72.186909    72.186909    36.015058          120    16819.031    17489.139   -34493.477   -145.78412   -3022.6261    85.250783    72.186909    62.515697    36.015058   -61.769216   -312185.17 
     420    80.437727    162534.39    72.187664    72.187664    36.015435          120    16569.645    16985.991   -34581.242   -358.51883   -3096.4213   -41.871261    72.187664    62.516351    36.015435   -341.86866   -312186.49 
     430    79.198342    162538.51    72.188273    72.188273    36.015739          120    16390.304    16659.064   -35134.625   -676.83037   -3033.9303   -139.09087    72.188273    62.516879    36.015739   -695.08555   -312183.93 
     440    80.132354     162541.1    72.188656    72.188657     36.01593          120    16504.665     16627.41   -34899.358   -590.89274   -3246.1309   -332.72085    72.188656    62.517211     36.01593   -589.09443   -312186.13 
     450    80.599804    162542.35    72.188842    72.188842    36.016023          120    16827.856    16713.496   -35060.893   -547.38751   -3369.7918   -323.33235    72.188842    62.517371    36.016023   -506.51345   -312187.68 
     460    79.459921    162542.53    72.188869    72.188869    36.016036          120    17171.748    17024.013   -35330.592   -315.08215   -3171.2337   -465.42137    72.188869    62.517395    36.016036   -378.27704   -312186.15 
     470    78.962733     162541.9    72.188775    72.188776     36.01599          120    17055.258    16953.909   -35382.912   -353.58099   -3086.6775   -461.07919    72.188775    62.517314     36.01599   -457.91491   -312186.26 
     480    77.888891    162540.37    72.188548    72.188549    36.015877          120    17325.324     16493.14   -35498.608   -390.39204   -2927.8772   -317.68349    72.188548    62.517117    36.015877   -560.04781   -312185.43 
     490    78.237304    162537.84    72.188174    72.188175     36.01569          120     17371.17     16346.04   -35065.179   -390.56741   -2698.9698   -68.631534    72.188174    62.516793     36.01569   -449.32327   -312187.15 
     500    77.926673    162534.54    72.187685    72.187686    36.015446          120     17349.87    16526.406   -34949.373    -207.9099   -2658.2132   -31.545578    72.187685     62.51637    36.015446   -357.69905   -312187.81 
     510    77.450944    162530.75    72.187124    72.187125    36.015166          120    17455.671    16796.326   -34451.905   -224.07054    -2587.733    16.860851    72.187124    62.515884    36.015166   -66.636246   -312188.49 
     520    76.537543    162526.95    72.186561    72.186562    36.014885          120    17093.541    16825.013   -34496.056    -16.07568   -2750.2348    101.23979    72.186561    62.515396    36.014885   -192.50095   -312188.19 
     530    76.242966    162522.98    72.185973    72.185974    36.014592          120    17163.781    16835.021    -34710.81   -81.300309   -2956.7325   -436.04538    72.185973    62.514887    36.014592   -237.33595    -312189.3 
     540    76.854718    162518.81    72.185357    72.185358    36.014284          120    17673.119    17046.742   -34340.107    -688.9414   -3107.9875   -582.24919    72.185357    62.514354    36.014284    126.58434   -312191.75 
     550    77.258971    162515.09    72.184806    72.184806    36.014009          120    17543.316    17309.367   -33856.866   -872.14622   -2796.0533   -652.67718    72.184806    62.513876    36.014009    331.93904   -312194.18 
     560    76.006942    162512.18    72.184375    72.184376    36.013794          120      17281.7    17392.597   -33729.606   -966.30686   -2849.7506   -589.35108    72.184375    62.513503    36.013794    314.89713   -312193.31 
     570    74.689703    162510.11    72.184069    72.184069    36.013642          120    17639.572    17610.121   -33528.601   -1068.0679   -2744.0435   -593.07322    72.184069    62.513238    36.013642    573.69753   -312192.35 
     580    74.950589    162509.27    72.183943    72.183944    36.013579          120    17344.702    17817.225   -33113.146   -855.09136   -2754.9964   -799.25944    72.183943    62.513129    36.013579    682.92699   -312194.52 
     590    74.682053    162509.82    72.184025    72.184025     36.01362          120    17272.383    17736.086   -33033.973   -670.93091   -2878.0793    -732.6332    72.184025      62.5132     36.01362    658.16542   -312195.39 
     600    74.883157    162511.64    72.184294    72.184295    36.013754          120    17509.031    17514.193   -33374.708   -576.03142   -3077.8587   -594.51625    72.184294    62.513433    36.013754     549.5055   -312197.42 
     610    74.203462    162514.46    72.184712    72.184713    36.013963          120    17477.216    17539.569   -33904.748   -631.62828   -3167.2394   -531.56798    72.184712    62.513795    36.013963     370.6791   -312197.41 
     620    73.664192    162517.85    72.185214    72.185214    36.014213          120    17363.084    17231.747   -34453.289   -530.27536   -3119.4545   -619.96098    72.185214     62.51423    36.014213    47.180743   -312198.04 
     630    73.280446    162521.21    72.185711    72.185712    36.014461          120    17490.012    17187.158   -34544.619   -307.09014   -3068.4019   -590.28647    72.185711    62.514661    36.014461    44.184048   -312198.81 
     640    73.293104    162524.52    72.186201    72.186202    36.014706          120    17649.235    17327.306    -34490.27   -260.10166   -2953.1433   -302.39794    72.186201    62.515085    36.014706    162.09033   -312200.23 
     650    73.011659    162527.94    72.186709    72.186709    36.014959          120    17795.528    17376.956   -34824.667   -122.82795   -2965.1434   -348.19818    72.186709    62.515524    36.014959    115.93925    -312200.7 
     660    73.582206    162531.46    72.187229     72.18723    36.015218          120    17928.809    17399.434   -34685.039   -112.32948   -2753.0862   -637.75777    72.187229    62.515975    36.015218    214.40123    -312202.8 
     670    73.322517    162535.19    72.187782    72.187783    36.015494          120    17588.494    17390.708   -34608.019   -320.97052   -2895.7138   -686.40864    72.187782    62.516454    36.015494    123.72769   -312203.48 
     680    72.165324    162538.97    72.188341    72.188342    36.015773          120    17230.778    17399.379   -34874.946   -521.17252   -3024.2882    -490.9424    72.188341    62.516938    36.015773   -81.596556   -312202.26 
     690    71.761987    162542.45    72.188857    72.188857     36.01603          120    17356.612    17671.319   -35060.434   -644.14793   -2968.1776   -420.24757    72.188857    62.517384     36.01603   -10.834428   -312201.95 
     700    72.290839    162545.75    72.189344    72.189345    36.016274          120    17491.625     17641.36   -34762.679   -575.61287   -2868.4784   -493.84043    72.189344    62.517807    36.016274    123.43539   -312203.63 
     710    71.980482    162549.06    72.189834    72.189835    36.016518          120    17381.843    17368.769   -34770.229   -547.76682   -2842.7272   -630.16506    72.189834    62.518231    36.016518    -6.538974   -312203.92 
     720    71.457807    162552.25    72.190307    72.190307    36.016754          120    17511.221    17379.393   -34477.786   -668.70149   -2659.5392   -515.67843    72.190307     62.51864    36.016754    137.60903   -312203.59 
     730    71.884137    162555.54    72.190795    72.190795    36.016997          120    17441.804    17488.469   -34342.269   -915.61514   -2589.4175    5.2720187    72.190795    62.519063    36.016997    196.00139   -312204.76 
     740    71.456836    162558.99    72.191305    72.191305    36.017252          120    17080.643     17117.89   -34714.357   -1197.4417   -2625.8961  0.093011321    72.191305    62.519504    36.017252   -171.94137   -312204.38 
     750    71.214941    162561.92    72.191739    72.191739    36.017468          120    16865.571    16578.779   -35121.193   -1270.1923   -2606.1292    -239.8996    72.191739     62.51988    36.017468   -558.94727   -312204.05 
     760    71.676235     162563.6    72.191987    72.191988    36.017592          120    17006.033    16471.432   -35823.854   -1017.0094   -2680.2929   -376.88463    72.191987    62.520095    36.017592   -782.12949   -312205.01 
     770    71.218032     162563.7    72.192001    72.192002    36.017599          120    17081.067    16730.904   -35550.097   -577.71755   -2650.5666    -542.4132    72.192001    62.520108    36.017599   -579.37506   -312203.84 
     780    71.419371    162562.66    72.191848    72.191848    36.017523          120    17306.492    16948.203   -34862.145    -356.4971   -2554.1551   -510.38892    72.191848    62.519975    36.017523   -202.48331   -312203.69 
     790     71.89046    162561.27    72.191642    72.191643     36.01742          120    17505.251    17321.739   -34253.553   -519.31231    -2792.698   -409.69448    72.191642    62.519797     36.01742    191.14552   -312204.21 
     800    72.387182    162560.26    72.191494    72.191494    36.017346          120    17148.666    17725.821   -34172.664   -447.47236   -2940.7438   -532.39536    72.191494    62.519668    36.017346    233.94117   -312204.36 
     810    71.734764    162559.73    72.191414    72.191415    36.017306          120    17128.066    17486.342   -34684.109   -495.87336   -2601.5858   -515.70179    72.191414    62.519599    36.017306   -23.233516   -312202.38 
     820    72.487534    162559.16    72.191331    72.191331    36.017265          120    17047.448    17203.479   -34988.583   -742.39433   -2588.7505   -768.79764    72.191331    62.519527    36.017265   -245.88521   -312203.24 
     830    73.132745    162558.26    72.191196    72.191197    36.017198          120    17467.835    17352.359   -34370.679   -625.03059   -2681.1743   -817.13005    72.191196    62.519411    36.017198    149.83836   -312203.65 
     840    73.585392    162557.68    72.191111    72.191111    36.017155          120    18130.109    17519.945   -34201.035   -616.56204   -2669.4891   -691.06568    72.191111    62.519337    36.017155    483.00615   -312203.32 
     850    73.735655    162558.04    72.191164    72.191164    36.017181          120    17999.563    17502.523   -34192.612   -793.66841   -2607.8822   -867.35648    72.191164    62.519383    36.017181    436.49124   -312202.79 
     860    74.232061    162559.23     72.19134    72.191341    36.017269          120    17587.909    17384.114   -34224.142   -705.46016    -2647.782   -744.21526     72.19134    62.519535    36.017269    249.29371    -312202.5 
     870    74.225643    162560.88    72.191584    72.191585    36.017391          120    17508.821    17373.355   -34405.159   -629.09185   -2924.6832   -862.79937    72.191584    62.519747    36.017391     159.0057   -312201.42 
     880    74.065603    162562.78    72.191866    72.191867    36.017532          120    17353.015    17640.123   -34474.457    -712.3357   -3402.2125    -814.4496    72.191866    62.519991    36.017532    172.89357   -312200.29 
     890    74.707676    162564.95    72.192187    72.192188    36.017692          120    17290.914    17787.721   -34413.618   -433.28371   -3566.3087   -838.81365    72.192187    62.520269    36.017692    221.67231   -312200.59 
     900    75.180869    162567.43    72.192554    72.192554    36.017875          120    17407.229    17355.048   -34484.155   -216.88974   -3170.0051   -1059.2929    72.192554    62.520586    36.017875    92.707506   -312200.15 
     910    74.991247    162569.97     72.19293     72.19293    36.018062          120    17309.867    17260.104   -34673.076   -183.71002   -2978.8776   -1111.5616     72.19293    62.520912    36.018062    -34.36826   -312198.51 
     920    75.678886    162572.36    72.193284    72.193284    36.018239          120    17185.327    17409.856   -34478.997   -215.80989   -2844.9765   -997.29685    72.193284    62.521218    36.018239    38.728882   -312198.91 
     930     75.92565     162574.7     72.19363    72.193631    36.018412          120    17313.778    17359.631   -34523.136   -221.61152   -2674.4856   -726.73389     72.19363    62.521519    36.018412    50.091181   -312198.13 
     940     76.48723    162577.07    72.193981    72.193982    36.018587          120    17449.848     17539.14   -34337.403   -264.50152   -2878.4352   -872.63919    72.193981    62.521822    36.018587     217.1952   -312198.39 
     950    76.505387    162579.74    72.194376    72.194376    36.018784          120    17290.063    17764.367   -34415.823   -178.25758   -2668.6207    -994.7101    72.194376    62.522164    36.018784    212.86905   -312197.22 
     960    76.772838    162582.65    72.194806    72.194807    36.018999          120    17162.258    17309.485   -34657.164   -113.07407   -2462.1106   -1224.0811    72.194806    62.522537    36.018999   -61.806706   -312197.43 
     970     76.40948    162585.33    72.195204    72.195205    36.019197          120    17290.976    17024.911   -34738.778   -80.082722   -2651.0538   -1418.2473    72.195204    62.522881    36.019197    -140.9638   -312196.21 
     980    77.259618    162587.63    72.195545    72.195545    36.019367          120    17469.701    17053.209   -34656.408   -69.100673   -2682.5243   -1260.0821    72.195545    62.523176    36.019367   -44.499305   -312197.04 
     990    77.744004    162589.78    72.195862    72.195863    36.019525          120    17831.672    17270.454   -34452.336   -197.42961   -2715.0015   -1342.1246    72.195862    62.523451    36.019525    216.59681   -312197.17 
    1000    77.910333    162592.17    72.196216    72.196217    36.019702          120    17635.544    17160.487   -34645.406   -269.66238   -2613.1929   -1475.2892    72.196216    62.523758    36.019702    50.208079   -312196.85 
    1010     77.67326    162594.51    72.196563    72.196564    36.019875          120    17273.537    17023.094   -35295.915   -512.67559    -2548.364   -1221.0448    72.196563    62.524058    36.019875   -333.09486   -312196.04 
    1020    77.763301    162596.16    72.196806    72.196807    36.019996          120    17365.778    16908.601   -35275.546   -335.35396   -2643.8508   -1151.0614    72.196806    62.524269    36.019996   -333.72226   -312196.06 
    1030    78.408341    162597.06     72.19694     72.19694    36.020063          120    17610.346    16582.593   -34860.232   -335.54148     -2653.91   -1316.7786     72.19694    62.524385    36.020063   -222.43091   -312196.98 
    1040    77.953643    162597.49    72.197003    72.197004    36.020095          120    17807.719    16616.544   -34525.943   -518.34829   -2636.4638   -1031.0742    72.197003     62.52444    36.020095   -33.893418   -312196.07 
    1050    78.259631    162597.79    72.197048    72.197048    36.020117          120    17719.917    16599.577   -34413.939   -668.30101   -1935.5052   -645.53337    72.197048    62.524478    36.020117    -31.48179   -312196.69 
    1060    78.263416    162597.99    72.197077    72.197078    36.020132          120    17434.926    16604.719   -34530.174   -834.30472   -1913.3363   -665.22516    72.197077    62.524504    36.020132   -163.50959   -312196.21 
    1070    78.515854    162597.82    72.197053    72.197053     36.02012          120    17157.182    16404.968   -34825.022    -743.6434   -2059.3269   -751.96443    72.197053    62.524483     36.02012   -420.95769   -312197.19 
    1080    78.687791    162596.83    72.196906    72.196906    36.020046          120     16821.04    16557.296   -35118.288   -497.44679   -2332.6111   -731.78778    72.196906    62.524355    36.020046   -579.98376   -312198.01 
    1090    77.995459    162594.79    72.196604    72.196605    36.019896          120    16769.091    17158.178   -34895.549   -387.13844   -2800.7333   -757.78236    72.196604    62.524094    36.019896   -322.76012   -312197.28 
    1100    77.799601    162592.18    72.196217    72.196218    36.019703          120    17168.687    17182.818   -34656.309   -332.97108   -2751.9972   -775.25673    72.196217    62.523759    36.019703   -101.60127   -312197.58 
    1110    77.862161    162589.47    72.195816    72.195817    36.019503          120    17450.315    17423.696   -34471.877   -349.65071   -2842.5606     -553.653    72.195816    62.523412    36.019503     134.0444   -312198.68 
    1120    77.576756    162587.13    72.195471    72.195471     36.01933          120    17584.962    17596.565   -34309.668   -186.11696   -2820.2998   -771.98589    72.195471    62.523112     36.01933    290.61969   -312198.74 
    1130    77.116447    162585.47    72.195225    72.195225    36.019208          120    17558.676    17478.521   -34046.663    -127.8858   -2608.9944   -789.74776    72.195225    62.522899    36.019208    330.17793   -312198.89 
    1140    76.376169    162584.53    72.195086    72.195086    36.019138          120    17668.144    17522.888   -34451.944   -426.16692   -2617.9056   -619.94558    72.195086    62.522779    36.019138    246.36262   -312198.13 
    1150    75.983752    162584.14    72.195027    72.195028    36.019109          120    17839.553    17559.933   -34739.876   -607.01555   -2643.5506   -672.96725    72.195027    62.522728    36.019109     219.8699   -312198.69 
    1160    76.507554    162584.22    72.195039     72.19504    36.019115          120    17892.881    17553.568   -34654.088   -670.92963   -2594.9754    -592.5852    72.195039    62.522739    36.019115    264.12025   -312200.93 
    1170    75.802299    162584.78    72.195122    72.195123    36.019156          120    17886.027    17472.488   -35103.978   -665.09407   -2328.6026   -700.10902    72.195122     62.52281    36.019156    84.845706   -312200.73 
    1180    75.385136     162585.5    72.195229     72.19523     36.01921          120    17775.084    17218.707   -35050.684   -544.69913   -2614.2881   -885.59723    72.195229    62.522903     36.01921   -18.964382   -312200.92 
    1190    75.560972    162586.17    72.195328    72.195329    36.019259          120    17688.088    16955.332   -34767.124   -563.11577   -2656.1603   -1089.3637    72.195328    62.522989    36.019259   -41.234702    -312202.8 
    1200    75.361591    162586.76    72.195415    72.195415    36.019302          120    17957.749    17083.516   -34556.986   -646.93895   -2723.2931   -1211.0875    72.195415    62.523064    36.019302    161.42644   -312203.38 
    1210    74.932232    162587.68    72.195551    72.195552     36.01937          120      18286.1    17698.065   -34439.316   -570.67472   -2922.3579   -978.10047    72.195551    62.523182     36.01937    514.94971   -312203.43 
    1220    74.636696    162589.53    72.195826    72.195826    36.019507          120    18242.917    17757.453   -34275.934    -408.5738   -2895.0031   -667.80861    72.195826     62.52342    36.019507    574.81222   -312204.26 
    1230    73.759234    162592.47     72.19626     72.19626    36.019724          120     18198.92    17865.197   -34311.706   -427.48707   -2757.4601   -786.10704     72.19626    62.523796    36.019724    584.13712   -312203.91 
    1240     74.23365     162596.4    72.196843    72.196843    36.020015          120     17804.49    17769.328    -34497.88   -307.70085   -2687.1933    -1034.005    72.196843      62.5243    36.020015    358.64592   -312206.01 
    1250    73.304569    162600.89    72.197508    72.197508    36.020346          120    17387.837    17513.226    -34576.13   -276.90123   -2615.9925   -1117.8263    72.197508    62.524876    36.020346    108.31084   -312205.46 
    1260     73.61181    162605.42    72.198177    72.198177     36.02068          120    17426.115    17096.663   -34835.989   -257.72439    -2896.214   -1064.1724    72.198177    62.525456     36.02068   -104.40383   -312207.02 
    1270    73.428084    162609.55    72.198789     72.19879    36.020986          120    17305.954    17199.506   -35078.975   -103.87999   -2936.2648   -981.65176    72.198789    62.525986    36.020986   -191.17169   -312207.57 
    1280    73.042785    162613.15    72.199322    72.199322    36.021251          120    17156.674     17095.95   -34784.618    40.808097   -2728.7984    -509.1213    72.199322    62.526447    36.021251    -177.3314   -312207.63 
    1290    72.662633    162616.24    72.199779     72.19978     36.02148          120        17270     16915.38    -34512.35   -45.580072    -2834.205   -544.66976    72.199779    62.526843     36.02148   -108.98997   -312207.63 
    1300     72.65208    162618.99    72.200185    72.200186    36.021682          120     17401.88    17155.099   -34615.158    -150.6112   -2566.9499   -568.52265    72.200185    62.527195    36.021682   -19.393147   -312208.48 
    1310    72.076925    162621.55    72.200564    72.200564    36.021871          120     17507.86    16995.487   -34785.018   -193.64958   -2531.1041    -230.0528    72.200564    62.527523    36.021871   -93.890097   -312207.89 
    1320    71.533686    162623.79    72.200896    72.200896    36.022037          120    17202.466    16708.535   -34642.716   -67.049673   -2596.9919   -314.76358    72.200896    62.527811    36.022037   -243.90465   -312207.04 
    1330    72.420257    162625.43    72.201139    72.201139    36.022158          120    16865.877    16775.771   -34944.957    29.731678    -2573.402   -452.91864    72.201139    62.528021    36.022158   -434.43654   -312209.54 
    1340    72.872821    162626.13    72.201242    72.201242     36.02221          120    16817.833    16487.311   -35100.421     132.8824   -2428.2971   -637.92402    72.201242     62.52811     36.02221   -598.42567   -312210.49 
    1350     72.85176    162625.59    72.201163    72.201163     36.02217          120    16972.772    16289.096   -35270.069    53.310788   -2360.6636   -870.88226    72.201163    62.528042     36.02217   -669.40027   -312210.44 
    1360    72.423909    162623.78    72.200894    72.200895    36.022036          120    16902.327    16646.436   -34986.675   -121.68236   -2251.7908   -1286.5315    72.200894    62.527809    36.022036   -479.30399   -312209.72 
    1370    71.687745    162621.04    72.200489     72.20049    36.021834          120        16915     16750.21   -34741.367   -204.36163   -2437.7293   -1104.4011    72.200489    62.527459    36.021834   -358.71906   -312208.55 
    1380    72.168012    162617.72    72.199997    72.199998    36.021588          120    17353.663    16843.818   -34636.632    -440.2135   -2542.6978    -851.2398    72.199997    62.527032    36.021588   -146.38367   -312209.17 
    1390    71.883864    162614.25    72.199485    72.199485    36.021333          120    17647.218      17008.5   -34259.111   -628.55463   -2626.6402   -1001.5799    72.199485    62.526589    36.021333    132.20217    -312208.4 
    1400    72.498331    162611.11    72.199019     72.19902    36.021101          120    17276.877    16965.304   -34400.579   -567.87752   -2864.6233   -810.49998    72.199019    62.526185    36.021101   -52.799245   -312209.12 
    1410    72.336028    162607.99    72.198557    72.198558     36.02087          120    16738.256    16974.711   -34455.475     -512.228   -2522.1473   -868.77579    72.198557    62.525785     36.02087   -247.50266   -312208.59 
    1420    72.393393    162604.49     72.19804     72.19804    36.020612          120    16661.841    16932.701   -34649.609   -415.40241   -2343.4356   -979.46492     72.19804    62.525337    36.020612   -351.68909   -312207.88 
    1430    72.964574    162600.51    72.197451    72.197452    36.020318          120    17227.629      17098.5   -34399.961   -199.40404   -2440.8126   -790.15957    72.197451    62.524827    36.020318   -24.610833   -312208.37 
    1440    73.023742    162596.65    72.196879    72.196879    36.020033          120    17537.839    17595.291   -34289.174   -284.35792   -2184.5403   -937.10178    72.196879    62.524332    36.020033    281.31858   -312207.86 
    1450    73.114609    162593.48     72.19641    72.196411    36.019799          120    17714.202    17387.992   -33979.362   -57.245002   -2088.6816   -1284.5391     72.19641    62.523926    36.019799    374.27747   -312207.19 
    1460    73.535528    162591.18     72.19607     72.19607    36.019629          120    17897.271    17563.835    -34476.16    206.66573   -2166.0477    -1235.351     72.19607    62.523631    36.019629    328.31545   -312207.18 
    1470    73.796992    162589.64    72.195842    72.195842    36.019515          120    17796.749    17759.119   -34655.336    428.19785   -2299.6715   -932.74596    72.195842    62.523434    36.019515    300.17702   -312206.77 
    1480    74.210511    162588.73    72.195707    72.195707    36.019448          120    17484.311    17403.596   -34562.843    547.25502   -2589.7559   -1185.9107    72.195707    62.523317    36.019448    108.35463   -312206.55 
    1490    74.248983    162588.04    72.195606    72.195606    36.019397          120    17308.366    17301.802   -35070.018     373.4311   -2790.9956   -1349.9507    72.195606    62.523229    36.019397   -153.28312   -312205.75 
    1500    75.131537    162587.19    72.195479     72.19548    36.019335          120    17748.617    17242.565   -34683.893    227.48892   -2744.3565   -1231.1668    72.195479     62.52312    36.019335    102.42952   -312206.42 
    1510    75.503204    162586.55    72.195385    72.195386    36.019287          120    18075.465    16985.214   -34381.879    89.026762   -2502.2981   -1221.7553    72.195385    62.523038    36.019287    226.26637   -312206.14 
    1520    75.850926    162586.35    72.195355    72.195355    36.019272          120    17851.865    16931.123   -34373.789   -224.03659   -2130.0696   -1220.9011    72.195355    62.523012    36.019272    136.39929   -312206.21 
    1530    74.992287    162586.48    72.195374    72.195374    36.019282          120    17844.869    17365.168   -34304.475   -475.88264   -2208.8713   -1310.7631    72.195374    62.523028    36.019282    301.85422   -312203.56 
    1540    75.278067    162587.18    72.195477    72.195478    36.019333          120    17603.673     17585.18   -34229.846   -424.02728   -2173.4512   -1205.0085    72.195477    62.523118    36.019333    319.66909   -312203.02 
    1550    75.596757    162588.48     72.19567    72.195671     36.01943          120    17500.508    17347.065   -34109.239   -354.10678   -2058.3658   -1065.5595     72.19567    62.523285     36.01943    246.11136   -312203.09 
    1560    75.296226    162590.25    72.195933    72.195933    36.019561          120    17554.973     17106.62   -33827.883   -416.65246   -2328.4834   -736.56482    72.195933    62.523512    36.019561    277.90347   -312201.58 
    1570    76.756575    162592.51    72.196267    72.196268    36.019727          120    17723.876    17253.031   -34053.475   -487.04462   -2683.8289   -601.35035    72.196267    62.523802    36.019727    307.81043   -312203.25 
    1580    76.051035    162595.29    72.196678    72.196678    36.019932          120    17555.411    17488.938   -34323.575   -355.78304   -2782.8243   -895.55201    72.196678    62.524157    36.019932    240.25776      -312201 
    1590    76.472523    162598.41     72.19714     72.19714    36.020163          120    17383.027    17290.485   -34433.881   -271.21202   -2813.1164   -1243.7905     72.19714    62.524558    36.020163    79.877187   -312201.01 
    1600    78.235768    162601.59    72.197611    72.197612    36.020398          120    17245.177    17650.901    -34634.91   -499.91823   -2919.1951   -999.27696    72.197611    62.524966    36.020398    87.055882   -312203.62 
    1610    77.204647    162604.85    72.198094    72.198094    36.020639          120    17468.839    17795.605   -34404.791   -421.06681   -2649.7797   -1066.5685    72.198094    62.525384    36.020639    286.55091   -312201.33 
    1620    77.394431    162608.57    72.198644    72.198644    36.020913          120    17800.478    17863.315   -33993.153   -306.47544   -2073.6509   -963.42616    72.198644     62.52586    36.020913    556.87999   -312200.98 
    1630    77.452233    162613.23    72.199333    72.199334    36.021257          120     18044.17    17774.433   -33888.628   -369.38123   -2315.5973   -699.13349    72.199333    62.526458    36.021257    643.32515   -312200.48 
    1640     77.98976       162619    72.200187    72.200187    36.021683          120    18473.266    17545.827   -34126.603   -143.05422   -2529.7315   -812.34241    72.200187    62.527197    36.021683    630.82999   -312200.85 
    1650    77.596358    162625.79    72.201192    72.201193    36.022185          120    18310.221    17463.064   -34361.052   -107.79443   -2631.2753   -967.57254    72.201192    62.528067    36.022185    470.74417   -312200.14 
    1660    76.875697    162633.24    72.202295    72.202295    36.022735          120    17997.041    17042.951   -34500.595   -126.15086   -2788.5046   -984.36733    72.202295    62.529022    36.022735    179.79905   -312198.84 
    1670    77.632831    162640.79    72.203412    72.203413    36.023292          120    17593.641    16647.795   -34095.117   -55.656556   -2867.6129   -907.32635    72.203412     62.52999    36.023292    48.773101   -312200.09 
    1680     77.08662     162648.1    72.204494    72.204494    36.023832          120    17422.461    16724.092    -34816.54    28.816756   -2881.2801   -954.20771    72.204494    62.530926    36.023832   -223.32906   -312199.22 
    1690    77.067897    162654.75    72.205477    72.205477    36.024322          120    17499.268    17076.869    -34937.14    172.56226   -2530.8726   -854.25409    72.205477    62.531778    36.024322   -120.33441   -312199.44 
    1700    77.260532     162660.9    72.206388    72.206388    36.024777          120    17413.677    17562.806   -34565.234   -51.652049   -2437.3398   -768.45347    72.206388    62.532567    36.024777    137.08273   -312199.66 
    1710    77.971875    162667.11    72.207307    72.207307    36.025235          120    17509.641    17922.043   -34127.424    -366.6167   -2291.9321   -638.72403    72.207307    62.533362    36.025235    434.75322   -312201.33 
    1720    78.132679    162673.86    72.208305    72.208306    36.025734          120        17224    17919.411   -34338.724   -599.24579   -2276.3933   -654.23364    72.208305    62.534227    36.025734    268.22888   -312202.19 
    1730    77.668835    162680.89    72.209345    72.209345    36.026252          120     17063.84    17666.238   -34762.985   -818.06934   -2507.7423   -480.51389    72.209345    62.535127    36.026252   -10.968888   -312201.85 
    1740    77.433895    162687.62    72.210341    72.210342    36.026749          120    16772.602    17173.374   -34834.685   -728.38619    -2312.809   -463.34271    72.210341    62.535991    36.026749   -296.23609   -312202.17 
    1750    76.610285    162693.51    72.211212    72.211213    36.027184          120    17023.752    16814.548   -35172.132   -590.33443   -2386.7015   -479.74995    72.211212    62.536745    36.027184   -444.61046    -312201.4 
    1760    76.927616    162698.33    72.211926    72.211926     36.02754          120    17286.032    17228.149    -35133.66   -382.95305   -2324.9025   -637.42261    72.211926    62.537363     36.02754   -206.49282   -312202.41 
    1770    76.649997    162702.51    72.212544    72.212545    36.027849          120    17223.708      17398.1   -34989.466    -576.1412   -2744.4207   -857.81802    72.212544    62.537899    36.027849   -122.55269   -312202.87 
    1780    76.141603    162706.23    72.213095    72.213095    36.028123          120    17260.972    17033.067   -35232.616   -651.49447   -2859.5047   -946.81605    72.213095    62.538375    36.028123    -312.8588   -312202.93 
    1790     76.11277    162709.16    72.213528    72.213528    36.028339          120    17064.493    16731.607   -35506.897   -580.82706   -2725.2613   -989.13709    72.213528     62.53875    36.028339   -570.26573   -312203.53 
    1800    76.325178    162710.85    72.213779    72.213779    36.028464          120    17070.265    16344.309   -35466.092   -465.67231   -2667.3045   -966.83687    72.213779    62.538967    36.028464   -683.83941   -312205.37 
    1810     75.51829    162711.13    72.213819    72.213819    36.028484          120    16906.913    16392.828   -35227.891    -127.3436   -2515.3643   -779.85154    72.213819    62.539002    36.028484   -642.71663   -312204.82 
    1820    74.978777     162710.1    72.213667    72.213667    36.028409          120    16731.586    16682.482   -35010.647     55.23505    -2622.916   -628.60912    72.213667    62.538871    36.028409   -532.19275   -312204.72 
    1830    74.851104    162707.99    72.213354    72.213355    36.028252          120    16523.661    16837.518   -35214.475   -11.837846   -2418.8852   -698.51548    72.213354      62.5386    36.028252   -617.76504   -312205.38 
    1840    74.136561    162704.74    72.212874    72.212875    36.028013          120    16608.616    17215.717   -35238.281   -68.979851   -2080.5658   -617.75778    72.212874    62.538184    36.028013   -471.31612    -312205.1 
    1850     74.22727    162700.68    72.212273    72.212274    36.027713          120     16653.01    17276.563   -34796.165   -123.40533   -2061.8338   -558.64348    72.212273    62.537664    36.027713   -288.86388   -312206.03 
    1860    74.635778    162696.13      72.2116      72.2116    36.027377          120    16585.596    16973.014   -34854.343   -201.67637   -2535.3592    -566.0458      72.2116     62.53708    36.027377   -431.91093   -312207.59 
    1870     74.00044    162690.88    72.210824    72.210824     36.02699          120     16982.88    16621.264   -35024.002     -276.697   -2662.2117   -322.29103    72.210824    62.536409     36.02699   -473.28615   -312207.63 
    1880    73.155623    162684.92    72.209941    72.209942     36.02655          120    17677.925    16487.356   -35069.348   -550.87123   -2794.6285   -230.20301    72.209941    62.535644     36.02655   -301.35561   -312207.06 
    1890    73.851386     162678.6    72.209006    72.209007    36.026083          120    17967.689    16812.675   -34722.158   -592.82151   -2714.4524     -560.128    72.209006    62.534834    36.026083    19.401797   -312209.33 
    1900    72.785223    162672.56    72.208114    72.208114    36.025638          120    17796.018    17181.935   -33920.697   -422.34017   -2375.0334   -852.94789    72.208114    62.534061    36.025638    352.41852   -312207.91 
    1910    73.147115    162667.42    72.207352    72.207352    36.025258          120    17583.354    17450.239   -33935.247   -328.53577   -2275.6599   -883.37689    72.207352    62.533402    36.025258    366.11522   -312209.21 
    1920    73.200312    162663.18    72.206726    72.206726    36.024945          120    17806.737    17462.951   -34526.679   -389.15514   -2110.1014   -766.12404    72.206726    62.532859    36.024945    247.66964   -312210.24 
    1930    72.368803    162659.61    72.206197    72.206198    36.024682          120    17751.867    17309.288   -34561.151    -357.2297   -2411.7474   -412.15496    72.206197    62.532402    36.024682    166.66778   -312209.12 
    1940    72.484374    162656.49    72.205736    72.205736    36.024452          120    17428.662    16966.744   -34607.707   -348.28032   -2516.6041   -568.07221    72.205736    62.532002    36.024452   -70.766974   -312210.06 
    1950    72.796578     162653.3    72.205264    72.205264    36.024216          120      17154.2    16753.026   -35355.121   -364.99089   -3025.8216   -715.97416    72.205264    62.531593    36.024216   -482.63173    -312211.4 
    1960    73.562225    162649.33    72.204676    72.204676    36.023923          120    17110.232    16733.359   -35260.656   -512.39871   -2839.3085   -695.56271    72.204676    62.531084    36.023923   -472.35534   -312213.34 
    1970    72.880572    162644.62    72.203979    72.203979    36.023575          120    17504.622     16758.31   -34447.751   -287.69616    -2849.082   -694.82225    72.203979     62.53048    36.023575   -61.606062   -312212.23 
    1980    72.885516    162639.96     72.20329     72.20329    36.023231          120    17708.674    17162.417   -33854.155   -46.513128   -2810.4022   -603.58505     72.20329    62.529884    36.023231    338.97843   -312212.41 
    1990    72.596706    162636.08    72.202715    72.202715    36.022944          120    17387.427     17395.63   -34001.336    257.02564    -2474.999    -493.9814    72.202715    62.529386    36.022944    260.57349   -312212.17 
    2000    72.530655    162632.84    72.202236    72.202237    36.022705          120    17410.443    17300.324   -34679.839    177.16652   -2247.2918   -924.51202    72.202236    62.528971    36.022705    10.309354   -312211.85 
    2010    73.386624    162629.73    72.201775    72.201775    36.022475          120    17224.766    16905.222   -35120.321   -53.584905   -1986.0715   -1076.8078    72.201775    62.528572    36.022475    -330.1113   -312213.13 
    2020    72.595004    162626.08    72.201235    72.201236    36.022206          120    17088.482    16726.594   -35350.244    -127.4848   -2181.8968   -865.81407    72.201235    62.528104    36.022206   -511.72254   -312211.36 
    2030    73.049605     162621.6    72.200572    72.200572    36.021875          120    17266.358    17036.796   -35234.894   -235.62182   -2194.1133   -1047.0463    72.200572     62.52753    36.021875   -310.58007   -312212.05 
    2040    72.615864    162616.66    72.199841    72.199842    36.021511          120    17485.792    17355.895   -34851.367   -332.67347   -2115.9979   -963.48129    72.199841    62.526898    36.021511    -3.227002   -312210.68 
    2050    72.480222    162611.91    72.199137    72.199138     36.02116          120    17868.296    17526.158   -34537.333   -278.17084   -2302.5266   -723.94207    72.199137    62.526288     36.02116    285.70694   -312210.05 
    2060    73.224421    162607.87    72.198539     72.19854    36.020861          120     18084.97    17653.894   -34603.699    -83.01266   -2380.1612   -731.85446    72.198539     62.52577    36.020861    378.38858   -312211.13 
    2070    73.989737    162604.71    72.198072    72.198073    36.020628          120    17995.304    17688.541    -34800.21   -293.99112   -2283.9752   -163.72612    72.198072    62.525365    36.020628    294.54482   -312211.87 
    2080    72.961272    162602.28    72.197713    72.197713    36.020449          120    17950.337    17530.451   -34663.277   -349.15295   -2086.3212    -231.9434    72.197713    62.525054    36.020449    272.50353   -312208.82 
    2090    73.494826    162600.49    72.197448    72.197449    36.020317          120    17421.166    17545.695   -34070.927   -304.63649    -2153.994   -521.22463    72.197448    62.524825    36.020317    298.64435   -312209.35 
    2100    74.473874    162599.38    72.197284    72.197284    36.020235          120    17476.227     17382.81   -33709.658   -451.84469   -2121.0483   -573.65019    72.197284    62.524682    36.020235    383.12661   -312210.07 
    2110    74.280467    162599.07    72.197237    72.197238    36.020212          120    18031.021    17378.198   -34203.363   -285.62232   -2293.9376   -616.97498    72.197237    62.524642    36.020212    401.95172   -312208.87 
    2120    74.124704    162599.58    72.197313    72.197314    36.020249          120    17714.117    17498.086   -34159.426   -263.47679   -2274.1219   -837.68582    72.197313    62.524708    36.020249    350.92547   -312207.52 
    2130    75.209978    162600.77    72.197488    72.197489    36.020337          120    17473.358    17249.676   -34141.849   -145.51846   -2281.2729   -747.48398    72.197488     62.52486    36.020337    193.72859   -312208.58 
    2140    74.547793    162602.35    72.197722    72.197723    36.020454          120    17514.939    17555.921   -34289.318    76.381119   -2468.3037   -777.64924    72.197722    62.525062    36.020454    260.51405   -312206.52 
    2150    74.718808    162604.42    72.198029    72.198029    36.020606          120    17552.331    17792.098   -33901.767   -67.617355   -2522.9924   -843.91605    72.198029    62.525328    36.020606    480.88743   -312206.45 
    2160    75.461089    162607.36    72.198465    72.198466    36.020824          120    17756.307      17824.2   -33859.928   -260.50859   -2811.4551   -940.27426    72.198465    62.525705    36.020824    573.52646   -312206.81 
    2170    76.084453    162611.34    72.199053    72.199053    36.021117          120    17740.741    17686.492    -33975.42   -433.33288   -3081.4956   -967.31983    72.199053    62.526215    36.021117    483.93794   -312207.17 
    2180    76.066073    162616.11     72.19976     72.19976     36.02147          120     17744.75    17512.943   -34527.332   -202.57619   -2869.9646     -1089.72     72.19976    62.526827     36.02147     243.4539    -312206.6 
    2190    76.668097    162621.15    72.200506    72.200506    36.021842          120    17213.038    17090.464   -34968.271    78.239567   -2728.3029   -974.51891    72.200506    62.527473    36.021842   -221.58966   -312206.83 
    2200    75.819839    162625.71     72.20118     72.20118    36.022179          120    17216.401    17414.996   -34731.294    62.856675   -2693.5242    -948.5701     72.20118    62.528057    36.022179   -33.298997   -312204.55 
    2210    75.839987    162630.06    72.201824    72.201824      36.0225          120    17654.078      17657.1   -34309.762   -117.70827   -2503.1832   -1202.9933    72.201824    62.528614      36.0225    333.80533   -312204.02 
    2220    76.428939    162634.88    72.202538    72.202538    36.022856          120    17975.416    17483.975   -34002.791   -245.24952   -2464.6531   -1023.8174    72.202538    62.529233    36.022856    485.53339   -312204.17 
    2230    77.004744    162640.46    72.203363    72.203364    36.023268          120    17828.022    17167.756   -33963.371   -32.585192   -2735.4618   -850.66157    72.203363    62.529948    36.023268    344.13571   -312204.66 
    2240    76.615082    162646.52     72.20426     72.20426    36.023715          120    17341.441    17171.494   -34226.997   -73.023763   -2716.7855   -904.38565     72.20426    62.530724    36.023715      95.3126   -312203.49 
    2250    76.615689    162652.53    72.205148    72.205149    36.024159          120    17017.698    16948.965   -34723.086   -136.68395   -2508.9188   -999.43473    72.205148    62.531493    36.024159   -252.14121   -312202.85 
    2260    76.950753    162657.83    72.205933    72.205933     36.02455          120     16811.28    16984.985   -35218.242   -211.20388   -2882.6337   -1115.0833    72.205933    62.532173     36.02455    -473.9923   -312202.86 
[...]
   99200    75.651266    162868.95     72.23716    72.237161     36.04013          120    17487.871    16293.037   -35308.857    297.10563   -2786.0874   -1722.9282     72.23716    62.559216     36.04013   -509.31611   -312225.57 
   99210    75.582278    162871.66     72.23756    72.237561    36.040329          120    17385.099    16469.323   -35623.649    137.46558   -2707.9814    -1127.416     72.23756    62.559563    36.040329   -589.74235   -312225.53 
   99220     74.90676    162873.17    72.237784    72.237785    36.040441          120    17184.383    16465.656   -35270.508    254.97989   -2797.1656   -818.97619    72.237784    62.559757    36.040441   -540.15639   -312224.27 
   99230     75.50165    162873.57    72.237842    72.237843     36.04047          120    17192.753    16512.789   -35113.733    562.32826   -2997.5025   -1403.8536    72.237842    62.559807     36.04047   -469.39688   -312225.64 
   99240    74.363256    162873.01     72.23776    72.237761    36.040429          120    17354.847    16805.915   -35145.903    330.22686   -3140.2341   -1425.8021     72.23776    62.559736    36.040429    -328.3802   -312223.39 
   99250    75.462931    162871.72    72.237569     72.23757    36.040334          120     17361.76    16842.044   -35343.558    271.47972   -3023.8213   -1554.8317    72.237569    62.559571    36.040334    -379.9178   -312225.24 
   99260    75.678282     162869.7    72.237271    72.237271    36.040185          120    17683.795    16552.325   -34897.764    242.65945   -3010.9278   -1398.4282    72.237271    62.559312    36.040185   -220.54807   -312225.86 
   99270    75.379163    162867.22    72.236904    72.236904    36.040002          120    17418.228    16732.315   -34631.299     462.4412   -2725.7791   -1038.1692    72.236904    62.558994    36.040002   -160.25229   -312225.19 
   99280    75.459659    162864.38    72.236485    72.236485    36.039793          120    17521.541    16863.517   -34887.892    678.27266   -2750.6731   -1151.1146    72.236485    62.558631    36.039793   -167.61123   -312225.99 
   99290    75.557559    162861.25    72.236021    72.236021    36.039561          120    17794.522    16847.883   -34794.113    322.38051   -2874.6791        -1316    72.236021     62.55823    36.039561   -50.569426   -312226.45 
   99300    74.698529    162858.01    72.235542    72.235542    36.039322          120    17506.559    16999.082   -34553.969    285.26602   -2738.2323   -1218.1892    72.235542    62.557815    36.039322   -16.109295   -312224.97 
   99310    74.888485    162854.71    72.235054    72.235055    36.039079          120    17747.316    16945.314   -34996.561    355.11313    -2464.693   -1017.6114    72.235054    62.557393    36.039079   -101.31037    -312225.7 
   99320    75.147012    162851.21    72.234537    72.234538    36.038821          120    17659.514    16847.067   -35014.461     336.2173   -2627.0836   -1013.9225    72.234537    62.556945    36.038821   -169.29344   -312226.31 
   99330    74.535188    162847.36    72.233968    72.233968    36.038537          120    17630.392    16304.753   -34826.639    162.52196   -3017.1977    -1226.298    72.233968    62.556452    36.038537   -297.16452   -312225.39 
   99340    74.446088     162842.9    72.233308    72.233309    36.038208          120    17287.554    16461.977   -34961.202    382.24662    -2985.671   -1414.0394    72.233308     62.55588    36.038208   -403.89031   -312225.39 
   99350     75.12533    162837.72    72.232542    72.232543    36.037826          120    17621.347     16840.05   -34639.432    305.64249   -3076.6299   -1363.1141    72.232542    62.555217    36.037826    -59.34485   -312226.97 
   99360    74.731133    162832.38    72.231752    72.231752    36.037431          120    17546.713    17040.263   -34598.164    577.57096   -3017.5607   -1246.5353    72.231752    62.554533    36.037431   -3.7294569   -312226.48 
   99370    74.459188    162827.01    72.230958    72.230958    36.037035          120    17316.819    16917.968   -34730.606    720.97137   -2900.6397   -1203.3933    72.230958    62.553845    36.037035   -165.27302   -312226.58 
   99380    74.316008    162821.29    72.230113    72.230113    36.036614          120    17018.605    16798.361   -34966.976    424.37632   -2944.4904   -1116.8844    72.230113    62.553113    36.036614   -383.33672   -312226.42 
   99390    74.553326    162814.84    72.229158    72.229159    36.036137          120    17110.834      17198.9   -35429.614    344.93239   -2844.1571   -1222.4653    72.229158    62.552287    36.036137   -373.29342   -312226.95 
   99400    74.351658    162807.69    72.228102    72.228102     36.03561          120    17431.597    17271.587   -35048.791     431.3729   -2674.5441   -1350.4049    72.228102    62.551372     36.03561   -115.20235   -312227.13 
   99410    74.852031     162800.3    72.227008    72.227009    36.035065          120    17692.687    17061.521   -34692.323    234.30215   -2604.1873   -731.33577    72.227008    62.550425    36.035065    20.628381   -312228.36 
   99420    74.256442    162793.07    72.225939    72.225939    36.034531          120    18329.643    17408.582   -34194.514    -89.33389   -3024.9892   -693.10927    72.225939    62.549498    36.034531    514.57055   -312227.16 
   99430    74.393364    162786.82    72.225015    72.225015     36.03407          120    18534.901    17384.907   -34387.602    195.66787   -3163.2926   -640.20876    72.225015    62.548698     36.03407    510.73542   -312227.83 
   99440    74.509008    162781.69    72.224256    72.224257    36.033692          120     18375.78    17397.744   -34076.883    393.28816   -3073.5601   -847.74229    72.224256    62.548041    36.033692    565.54704    -312228.1 
   99450    74.316329    162777.72    72.223669     72.22367    36.033399          120    18576.506    17170.551   -34170.266     577.4584   -3216.5417    -1174.579    72.223669    62.547533    36.033399    525.59682   -312228.08 
   99460    73.966269    162774.86    72.223246    72.223247    36.033188          120    18933.492    17056.762   -34463.888    421.93957   -2786.2704   -1027.8436    72.223246    62.547166    36.033188    508.78879   -312226.84 
   99470    74.786894    162773.05    72.222979     72.22298    36.033054          120    18678.723    17556.812   -34623.785    322.25846   -3049.9475    -1323.448    72.222979    62.546935    36.033054    537.25046   -312228.54 
   99480    74.292962    162772.38    72.222879     72.22288    36.033005          120    18511.817    17499.428   -34146.504    374.94919   -2976.1083   -893.27715    72.222879    62.546849    36.033005    621.58038   -312227.89 
   99490    73.761997    162772.96    72.222965    72.222965    36.033047          120    18255.214    17634.365   -34302.092    630.99876    -3043.276   -1090.6842    72.222965    62.546923    36.033047    529.16247   -312226.38 
   99500    74.599293    162774.59    72.223206    72.223207    36.033168          120    17988.133    17524.232   -34622.718    630.24875   -2948.5694   -1114.2107    72.223206    62.547132    36.033168    296.54924   -312228.07 
   99510    74.801389    162776.88    72.223546    72.223546    36.033337          120    17904.398    17420.914   -34201.339    402.43357   -2853.2651   -1028.4192    72.223546    62.547426    36.033337    374.65748      -312228 
   99520    74.369351    162779.92    72.223995    72.223996    36.033561          120    17960.726    17558.478   -34211.716    133.28512   -2834.4996   -802.78724    72.223995    62.547815    36.033561    435.82942   -312227.19 
   99530     74.09774    162783.89    72.224581    72.224582    36.033854          120    18331.934    17809.274   -34151.021    268.19197    -2757.852   -695.31685    72.224581    62.548323    36.033854    663.39584   -312226.67 
   99540    73.905139    162789.17    72.225363    72.225364    36.034244          120    18424.307    17688.343   -33765.916    324.15151    -3112.798   -626.31554    72.225363       62.549    36.034244    782.24493   -312226.07 
   99550    75.280672    162795.98     72.22637     72.22637    36.034746          120    18213.079     17420.56   -34139.099    395.71267   -3028.3874   -551.42698     72.22637    62.549871    36.034746    498.17983   -312228.52 
   99560    74.533478    162803.75    72.227518    72.227519    36.035319          120    17833.879    16917.502   -34628.973    534.40833   -3468.7244   -829.50723    72.227518    62.550866    36.035319    40.802935   -312227.07 
   99570    75.363725    162811.68    72.228692    72.228692    36.035905          120    17643.831    16849.535    -34251.89    367.72868   -3034.1441   -1309.3664    72.228692    62.551883    36.035905    80.491777   -312228.31 
   99580    74.197489    162819.65     72.22987    72.229871    36.036493          120    17419.619    16642.932   -34918.524    349.00494   -2863.0504   -1573.4311     72.22987    62.552903    36.036493   -285.32443   -312226.09 
   99590     74.59441    162827.02     72.23096    72.230961    36.037036          120    17289.005    16375.194   -35193.271    477.43595   -2737.4755   -1466.1295     72.23096    62.553847    36.037036    -509.6908   -312226.61 
   99600    74.768207    162833.38      72.2319      72.2319    36.037505          120    17252.817     16466.66   -34837.788     460.2853   -2540.2734   -1314.8478      72.2319    62.554661    36.037505    -372.7703   -312226.86 
   99610    74.667218    162838.92    72.232719     72.23272    36.037914          120    17263.164     16619.21    -34690.11    668.75117   -2722.3651   -1182.0234    72.232719    62.555371    36.037914   -269.24528   -312226.06 
   99620    74.779849    162843.81    72.233443    72.233444    36.038275          120    17073.349    16464.183   -34932.913    482.96061   -2909.4419   -1390.4186    72.233443    62.555997    36.038275   -465.12684   -312226.05 
   99630    75.269515    162847.75    72.234026    72.234026    36.038566          120    17301.333    16362.647   -35284.116    54.037699   -3100.9506   -1249.0467    72.234026    62.556502    36.038566   -540.04519   -312226.62 
   99640    74.515999    162850.59    72.234444    72.234445    36.038775          120    17323.024    16229.345   -34996.356    119.08896   -3172.2205   -873.34865    72.234444    62.556865    36.038775   -481.32913   -312225.25 
   99650     74.45143     162852.4    72.234713    72.234714    36.038909          120    17434.604    16352.383    -35059.93    76.139682    -3110.427   -1055.5659    72.234713    62.557097    36.038909   -424.31421    -312225.1 
   99660    75.269319    162853.35    72.234852    72.234853    36.038978          120    17235.185    16937.888   -35158.758    123.54225   -2886.3528   -1337.9849    72.234852    62.557218    36.038978   -328.56158   -312226.52 
   99670    74.548429    162853.54    72.234881    72.234882    36.038993          120     17106.12    16689.772   -35426.792    309.35694   -2988.0704   -1251.4449    72.234881    62.557243    36.038993   -543.63332   -312225.02 
   99680    75.718509    162852.66    72.234751    72.234752    36.038928          120    17356.775    16278.299   -35178.436    377.21774   -2911.5549   -1291.5225    72.234751     62.55713    36.038928   -514.45414   -312227.23 
   99690    74.360325    162850.74    72.234466    72.234467    36.038786          120    17582.968    16247.992   -34962.009     370.0578   -2903.8474   -1581.0063    72.234466    62.556884    36.038786   -377.01656   -312224.38 
   99700    74.405059    162848.01    72.234063    72.234063    36.038584          120    17670.581    16181.348   -35025.613     423.1692   -3070.4678   -1161.7946    72.234063    62.556534    36.038584   -391.22807   -312224.39 
   99710    75.197477    162844.45    72.233537    72.233537    36.038322          120    17351.761    16444.536   -35357.571    283.57996   -3298.7835   -1160.2411    72.233537    62.556078    36.038322   -520.42478   -312226.07 
   99720    75.396435    162839.87    72.232859     72.23286    36.037984          120    17028.995    16799.543   -35127.707    231.63439   -3215.5512   -1533.2632    72.232859    62.555492    36.037984   -433.05608   -312226.51 
   99730     75.94519    162834.43    72.232055    72.232056    36.037583          120    17113.385    17044.417   -34899.957     355.1943   -2999.0944   -1172.8646    72.232055    62.554795    36.037583   -247.38492   -312227.37 
   99740    74.964966    162828.55    72.231187    72.231187    36.037149          120    17614.494    17094.004   -34367.231    395.23026   -2846.4871   -985.68408    72.231187    62.554043    36.037149    113.75555   -312225.32 
   99750    74.944003    162822.86    72.230345    72.230346    36.036729          120    18197.252    16941.394    -34466.78    488.58359   -2825.7941   -726.11318    72.230345    62.553314    36.036729    223.95524   -312225.22 
   99760    75.054013    162817.68    72.229578    72.229579    36.036347          120    17978.499    17220.324   -34020.284    519.48668   -3040.3662   -977.77918    72.229578     62.55265    36.036347    392.84603   -312225.64 
   99770    75.748024    162813.24    72.228922    72.228922    36.036019          120    17604.701    17332.407   -34559.115    418.42801   -2962.3606   -1090.7363    72.228922    62.552082    36.036019     125.9975   -312227.31 
   99780      74.6366    162809.09    72.228309    72.228309    36.035714          120    17260.898    17285.318    -34888.82    375.68865   -2935.0856   -913.76654    72.228309    62.551551    36.035714   -114.20136   -312224.71 
   99790    74.816289    162804.72    72.227662    72.227662    36.035391          120    17281.133    16954.829   -35083.592     202.8736   -3085.3359   -1076.0468    72.227662    62.550991    36.035391   -282.54309   -312225.03 
   99800    75.100412    162799.86    72.226943    72.226944    36.035032          120     17616.09    16945.014   -34779.008    153.94379   -2935.0536   -1312.2104    72.226943    62.550368    36.035032   -72.634773   -312225.55 
   99810    75.491494    162794.91    72.226212    72.226212    36.034667          120    18198.995    17447.382   -34393.834    303.62529   -2759.8593   -1256.3538    72.226212    62.549735    36.034667    417.51401   -312226.92 
   99820    74.932144    162790.87    72.225614    72.225615    36.034369          120    18518.298    17848.132    -33404.87    509.93939   -3296.7801   -1092.4458    72.225614    62.549217    36.034369    987.18669   -312225.71 
   99830    75.479863    162788.74    72.225298    72.225299    36.034212          120     18368.44    17823.355   -33677.519    246.88324   -3040.7293   -1438.5317    72.225298    62.548944    36.034212    838.09188   -312226.58 
   99840    75.091901    162788.24    72.225225    72.225225    36.034175          120    18005.787    17421.097   -34840.906    82.951874   -3062.9796   -1252.1996    72.225225     62.54888    36.034175    195.32599   -312225.93 
   99850     75.25202    162788.27    72.225229     72.22523    36.034177          120     17899.26    17433.862   -34942.118    147.80393    -3518.578   -1170.6037    72.225229    62.548884    36.034177    130.33437   -312226.05 
   99860    75.281879    162788.56    72.225272    72.225272    36.034198          120    17830.779    17271.222   -34568.612    269.09692   -3256.5725    -601.7307    72.225272    62.548921    36.034198    177.79638    -312226.3 
   99870      75.1072    162789.24    72.225373    72.225373    36.034249          120    17838.571    17333.179   -34353.752    371.14234    -2995.564    -694.5754    72.225373    62.549008    36.034249     272.6659   -312225.72 
   99880    75.472442    162790.46    72.225554    72.225554    36.034339          120    17996.554    17455.745    -34520.59    774.83567   -3139.4323   -1095.8655    72.225554    62.549165    36.034339    310.56958   -312226.52 
   99890    74.504522    162792.34    72.225831    72.225832    36.034477          120    18146.454    17555.783   -34528.796    493.08867   -3006.9759   -1408.3496    72.225831    62.549405    36.034477    391.14691    -312224.6 
   99900    75.238961    162794.98    72.226222    72.226222    36.034672          120    17795.923    17547.689   -34411.538    453.87973   -2456.5437   -1543.3089    72.226222    62.549743    36.034672    310.69138   -312226.25 
   99910    74.933496     162798.3    72.226714    72.226714    36.034918          120    17443.515    18030.138   -34262.807    312.56364   -2640.0172   -1639.8138    72.226714    62.550169    36.034918    403.61532   -312225.65 
   99920     74.84816    162802.36    72.227314    72.227314    36.035217          120    17445.323    17850.337   -34872.461    254.05592   -3280.4346   -1523.9046    72.227314    62.550689    36.035217    141.06643   -312225.58 
   99930    75.119917    162806.72    72.227958    72.227958    36.035538          120    17552.912    17361.464   -35084.546    875.01148   -3302.7546   -1252.6471    72.227958    62.551247    36.035538   -56.723197   -312226.18 
   99940    74.941594    162810.95    72.228583    72.228584     36.03585          120     17579.77    16922.391   -35092.081    1017.1203    -3207.499   -1493.0779    72.228583    62.551789     36.03585   -196.64015   -312226.21 
   99950    75.227801    162814.75    72.229145    72.229145    36.036131          120    17774.303    16639.032   -35190.647     823.7002   -3379.9792    -1451.681    72.229145    62.552275    36.036131   -259.10415   -312227.28 
   99960    74.680554    162818.09    72.229639    72.229639    36.036377          120    17769.677    17228.582   -34626.105    184.71868    -2948.394   -1409.5868    72.229639    62.552703    36.036377    124.05107   -312226.47 
   99970    74.930015    162821.62    72.230162    72.230162    36.036638          120    17574.705    17457.737   -34226.904    30.810693   -2846.5476   -1190.4573    72.230162    62.553156    36.036638    268.51257   -312227.28 
   99980    73.901884    162825.69    72.230763    72.230763    36.036938          120     17960.69     17053.08    -34235.89    57.207712   -2859.3434   -1004.4636    72.230763    62.553676    36.036938    259.29318   -312225.44 
   99990    74.957856    162830.23    72.231435    72.231435    36.037273          120    17788.265    16835.812   -34367.074     274.6321   -2851.0797   -844.23305    72.231435    62.554258    36.037273    85.667807   -312227.54 
  100000    74.783225    162834.88    72.232121    72.232122    36.037616          120    17531.239    16550.622   -35052.428    388.55679   -2827.8553   -975.09467    72.232121    62.554853    36.037616   -323.52236   -312227.74 
Loop time of 34242.7 on 1 procs for 100000 steps with 14848 atoms

Performance: 0.252 ns/day, 95.118 hours/ns, 2.920 timesteps/s
100.0% CPU use with 1 MPI tasks x no OpenMP threads

MPI task timing breakdown:
Section |  min time  |  avg time  |  max time  |%varavg| %total
---------------------------------------------------------------
Pair    | 30192      | 30192      | 30192      |   0.0 | 88.17
Bond    | 0.056767   | 0.056767   | 0.056767   |   0.0 |  0.00
Kspace  | 1404.6     | 1404.6     | 1404.6     |   0.0 |  4.10
Neigh   | 1825.3     | 1825.3     | 1825.3     |   0.0 |  5.33
Comm    | 41.845     | 41.845     | 41.845     |   0.0 |  0.12
Output  | 1.2926     | 1.2926     | 1.2926     |   0.0 |  0.00
Modify  | 760.36     | 760.36     | 760.36     |   0.0 |  2.22
Other   |            | 16.69      |            |       |  0.05

Nlocal:    14848 ave 14848 max 14848 min
Histogram: 1 0 0 0 0 0 0 0 0 0
Nghost:    46933 ave 46933 max 46933 min
Histogram: 1 0 0 0 0 0 0 0 0 0
Neighs:    1.01073e+07 ave 1.01073e+07 max 1.01073e+07 min
Histogram: 1 0 0 0 0 0 0 0 0 0

Total # of neighbors = 10107310
Ave neighs/atom = 680.719
Ave special neighs/atom = 0
Neighbor list builds = 5463
Dangerous builds = 0
 
All done!
Total wall time: 9:36:53
