LAMMPS (16 Mar 2018)
Reading data file ...
  triclinic box = (0 0 0) to (9.208 7.97436 18.376) with tilt (-4.604 0 0)
  1 by 1 by 1 MPI processor grid
  reading atoms ...
  116 atoms
Finding 1-2 1-3 1-4 neighbors ...
  special bond factors lj:   0          0          0         
  special bond factors coul: 0          0          0         
  0 = max # of 1-2 neighbors
  0 = max # of 1-3 neighbors
  0 = max # of 1-4 neighbors
  1 = max # of special neighbors
Replicating atoms ...
  triclinic box = (0 0 0) to (73.664 63.7949 36.752) with tilt (-36.832 0 0)
  1 by 1 by 1 MPI processor grid
  14848 atoms
Finding 1-2 1-3 1-4 neighbors ...
  special bond factors lj:   0          0          0         
  special bond factors coul: 0          0          0         
  0 = max # of 1-2 neighbors
  0 = max # of 1-3 neighbors
  0 = max # of 1-4 neighbors
  1 = max # of special neighbors
  Time spent = 0.00710511 secs
PPPM initialization ...
WARNING: System is not charge neutral, net charge = -0.2048 (../kspace.cpp:302)
  using 12-bit tables for long-range coulomb (../kspace.cpp:321)
  G vector (1/distance) = 0.201681
  grid = 36 50 24
  stencil order = 5
  estimated absolute RMS force accuracy = 0.00105653
  estimated relative force accuracy = 7.33721e-05
  using double precision FFTs
  3d grid and FFT values/proc = 65395 43200
Neighbor list info ...
  update every 1 steps, delay 0 steps, check yes
  max neighbors/atom: 2000, page size: 100000
  master list distance cutoff = 15.3
  ghost atom cutoff = 15.3
  binsize = 7.65, bins = 15 9 5
  3 neighbor lists, perpetual/occasional/extra = 3 0 0
  (1) pair morse, perpetual
      attributes: half, newton on
      pair build: half/bin/newton/tri
      stencil: half/bin/3d/newton/tri
      bin: standard
  (2) pair buck, perpetual, copy from (1)
      attributes: half, newton on
      pair build: copy
      stencil: none
      bin: none
  (3) pair lj/cut/coul/long, perpetual, copy from (1)
      attributes: half, newton on
      pair build: copy
      stencil: none
      bin: none
Setting up Verlet run ...
  Unit style    : metal
  Current step  : 0
  Time step     : 0.001
Per MPI rank memory allocation (min/avg/max) = 145.7 | 145.7 | 145.7 Mbytes
Step Temp Volume Cella Cellb Cellc CellGamma Pxx Pyy Pzz Pxy Pxz Pyz Lx Ly Lz Press PotEng 
       0          100    172711.88       73.664    73.664001       36.752          120   -210332.01   -210343.02   -281330.15    9.1734863   -2.5465215    3.3996334       73.664    63.794896       36.752   -234001.73   -309191.56 
      10    264.43053    172508.27    73.635041    73.635042    36.737552          120   -213741.72   -213818.37   -261215.14    74.658034    -7.487058   -107.78557    73.635041    63.769817    36.737552   -229591.74   -309566.82 
      20    509.81734    171915.63    73.550621    73.550622    36.695434          120    -212564.9   -212257.13   -200928.71     20.83162   -168.14445   -228.19087    73.550621    63.696707    36.695434   -208583.58   -310143.75 
      30    458.85413    171030.27    73.424144    73.424144    36.632332          120   -191830.49   -191343.21   -117591.72   -188.62432   -590.69502   -291.10607    73.424144    63.587174    36.632332   -166921.81   -310187.94 
      40    224.26518    170059.23    73.284922    73.284923    36.562873          120   -157503.44   -157266.31    -38520.98   -398.37106   -1007.8397   -347.86765    73.284922    63.466605    36.562873   -117763.58   -309847.54 
      50    292.60926    169203.22    73.161753    73.161753    36.501422          120   -118528.26   -118510.76   -2609.4023   -470.04641   -1114.0803   -526.28354    73.161753    63.359937    36.501422   -79882.808    -310038.3 
      60    620.10112    168518.29      73.0629    73.062901    36.452103          120   -84944.683   -84814.124    -35649.72   -567.29464   -2033.4529    -425.3897      73.0629    63.274328    36.452103   -68469.509   -310725.38 
      70    819.19447    167946.99    72.980242    72.980243    36.410864          120   -55938.522   -55470.166   -96611.029   -1034.1736   -2501.8793   -266.25923    72.980242    63.202745    36.410864   -69339.906    -311211.4 
      80     668.5095    167424.14     72.90443    72.904431     36.37304          120   -32982.714   -33050.831   -136655.51   -1550.8169   -2948.8446    170.61065     72.90443    63.137089     36.37304    -67563.02   -311025.83 
      90    396.98282    166917.83    72.830865    72.830866    36.336337          120       -20804   -21162.784   -148072.64   -1791.7258   -3567.0574     453.4386    72.830865     63.07338    36.336337   -63346.475   -310579.01 
     100    434.59487    166423.29    72.758867    72.758868    36.300417          120   -4460.1275   -4112.0669   -126445.43   -1616.9926   -3384.7459    91.935499    72.758867    63.011028    36.300417   -45005.873    -310706.2 
     110    597.83847    165962.98    72.691724    72.691724    36.266918          120    13681.109    14163.461   -82821.395   -1675.5392   -2989.8408   -51.914988    72.691724     62.95288    36.266918   -18325.608   -311088.51 
     120    567.58105    165568.42    72.634073    72.634073    36.238155          120    21864.076    22282.281   -31452.522   -1710.0945   -2926.5218    -551.6927    72.634073    62.902953    36.238155    4231.2782   -311106.93 
     130    456.16726    165257.72     72.58861    72.588611    36.215473          120    17718.164    18814.083    7782.7865   -1797.7363   -3055.5843   -602.77374     72.58861    62.863581    36.215473    14771.678   -310953.34 
     140    430.71429    165027.66     72.55491    72.554911     36.19866          120    11676.683     12198.24    16250.507   -1537.6188   -3132.5973   -523.37462     72.55491    62.834396     36.19866    13375.143   -310952.69 
     150    498.27555    164858.22     72.53007    72.530071    36.186267          120    4801.8895    5615.7761   -12090.243    -1674.208   -2781.4248   -195.08055     72.53007    62.812884    36.186267   -557.52579   -311136.59 
     160    541.33379    164717.05    72.509362    72.509362    36.175935          120   -5272.6695   -3352.6473   -51826.501    -1606.567   -2780.7686   -21.190617    72.509362     62.79495    36.175935   -20150.606   -311287.52 
     170     488.9601    164571.26    72.487962    72.487963    36.165258          120   -9850.9785   -7541.5271   -80073.725   -903.07605    -3074.002   -259.91858    72.487962    62.776417    36.165258   -32488.743   -311257.57 
     180     412.2276    164403.33    72.463299    72.463299    36.152953          120   -5395.2998   -2999.4644   -93017.734   -676.26418   -3021.9083   -283.24357    72.463299    62.755058    36.152953   -33804.166   -311169.56 
     190    408.18396    164214.17    72.435496    72.435497    36.139082          120    898.91671    3109.3004    -85367.82   -270.52911   -2567.8142   -17.340103    72.435496     62.73098    36.139082   -27119.868   -311213.19 
     200     442.9692    164016.15    72.406368    72.406368     36.12455          120    4948.7781    7058.4047   -61981.783   -591.71396   -2300.5098   -136.15969    72.406368    62.705754     36.12455     -16658.2      -311335 
     210    433.31766    163825.33    72.378278    72.378279    36.110535          120    8377.7796    10966.696   -36533.137   -748.31589   -2524.9129     177.9235    72.378278    62.681428    36.110535   -5729.5537   -311373.51 
     220     393.3874    163655.69    72.353286    72.353287    36.098067          120    11531.781    12789.533   -19486.654   -262.42598   -2671.6402     26.44811    72.353286    62.659785    36.098067    1611.5534   -311348.78 
     230    378.44555     163513.7    72.332355    72.332356    36.087624          120    12208.763    12207.538   -17600.866   -144.57244   -3015.9821    -476.2019    72.332355    62.641658    36.087624    2271.8115   -311366.03 
     240    390.20073     163395.6    72.314938    72.314938    36.078934          120      9903.72    9241.3157   -28597.588    -202.1496   -3262.3156   -445.71068    72.314938    62.626574    36.078934   -3150.8506   -311434.71 
     250    396.89654    163289.89     72.29934     72.29934    36.071152          120    7198.0614    6416.2751   -45770.054   -297.35564   -3181.8934   -699.73352     72.29934    62.613065    36.071152   -10718.573   -311496.59 
     260    375.61028     163184.1    72.283723    72.283723     36.06336          120    7455.1277    6808.8935   -60443.072   -400.11527   -2927.4929   -466.39695    72.283723    62.599541     36.06336   -15393.017   -311504.96 
     270    347.65702    163071.26    72.267057    72.267057    36.055045          120    8789.5266    8320.6545   -65856.105   -849.97744   -2312.3924    75.251174    72.267057    62.585108    36.055045   -16248.641    -311495.8 
     280    340.44496    162951.01     72.24929     72.24929    36.046181          120    10853.109     11589.93   -59769.896   -767.54446   -1680.5375    259.28799     72.24929    62.569721    36.046181   -12442.286   -311523.22 
     290    344.99123    162829.67    72.231351    72.231352    36.037232          120    14690.608    16440.581   -45540.556   -952.71723   -1561.2337    762.56407    72.231351    62.554186    36.037232    -4803.122   -311573.26 
     300    338.09079     162717.6    72.214776    72.214777    36.028962          120    17352.651    19522.786   -30767.181   -872.93866    -1547.838    650.16789    72.214776    62.539831    36.028962    2036.0853   -311601.29 
     310    321.14853    162622.94     72.20077    72.200771    36.021974          120    17330.134    20100.295   -20486.319   -288.41781   -2603.3967    278.04654     72.20077    62.527702    36.021974    5648.0363   -311607.53 
     320    312.53166    162548.15      72.1897    72.189701    36.016451          120    15310.192    17956.904   -18698.793   -261.33161   -3159.5866    134.34323      72.1897    62.518115    36.016451    4856.1012    -311628.1 
     330    311.25882    162489.51    72.181018    72.181018    36.012119          120    13100.425     15372.36   -24406.642   -294.99779   -3041.6606   -168.60429    72.181018    62.510596    36.012119     1355.381   -311661.79 
     340    308.23073    162439.96     72.17368    72.173681    36.008459          120    12714.615    14420.709   -35245.787   -124.96667   -2885.8101   -729.79582     72.17368    62.504241    36.008459   -2703.4877   -311691.56 
     350    295.33361    162392.58    72.166662    72.166663    36.004957          120    13624.255    14523.342   -44449.409   -483.99714    -2234.907   -988.86195    72.166662    62.498164    36.004957   -5433.9372   -311700.96 
     360    278.91062    162343.27    72.159358    72.159358    36.001313          120    15002.581    16096.947   -47190.507   -848.40591   -1897.2444   -1379.6494    72.159358    62.491837    36.001313   -5363.6598    -311701.1 
     370    272.05368    162292.13     72.15178    72.151781    35.997532          120    16435.504    17899.027   -44445.567   -1238.9769   -2210.2051   -1359.2447     72.15178    62.485275    35.997532   -3370.3455   -311718.16 
     380    269.86537    162242.11    72.144367    72.144367    35.993834          120    18281.591    19186.358   -37666.287   -1020.8746   -2267.7268   -1168.3641    72.144367    62.478855    35.993834    -66.11279   -311743.35 
     390    266.45472    162197.68     72.13778     72.13778    35.990547          120    18627.122    20592.813   -28586.702   -942.80707    -2333.577    -1133.659     72.13778     62.47315    35.990547    3544.4111   -311766.39 
     400    257.98908    162163.12    72.132656    72.132656    35.987991          120    18908.243    20650.573   -22836.897   -882.30291   -3137.8237   -807.38205    72.132656    62.468713    35.987991    5573.9728   -311778.05 
     410    251.55695    162140.14    72.129249     72.12925    35.986291          120    19198.083    20212.862   -22715.308   -668.67632   -3757.6432   -569.55154    72.129249    62.465763    35.986291    5565.2125   -311793.12 
     420    248.01954    162127.51    72.127376    72.127377    35.985357          120    18562.995    20097.926   -26569.728   -768.44428   -4193.9748     -782.439    72.127376    62.464141    35.985357    4030.3974   -311812.79 
     430    242.57934    162121.91    72.126545    72.126546    35.984942          120    17450.166    19018.839     -32555.6   -1003.1591   -4332.0825   -323.57835    72.126545    62.463421    35.984942    1304.4681   -311827.69 
     440    235.06663    162118.78    72.126081    72.126082    35.984711          120    16733.629    17910.914   -38026.473   -788.51477   -4048.0044   -123.56693    72.126081    62.463019    35.984711   -1127.3099   -311837.45 
     450    227.40659    162114.57    72.125457    72.125457    35.984399          120    17744.688     18171.53   -40137.226   -800.84898   -3639.6181   -167.25522    72.125457    62.462478    35.984399   -1407.0026    -311845.4 
     460    221.39146    162108.98    72.124629    72.124629    35.983986          120    20096.757    19079.644   -38306.623   -513.31587   -3021.3812    -449.0572    72.124629    62.461761    35.983986    289.92599   -311856.25 
     470    219.94357    162104.46    72.123957    72.123958    35.983651          120    21663.044    19771.711   -33534.868   -223.42535   -2604.7034   -875.64247    72.123957     62.46118    35.983651    2633.2957   -311875.04 
     480    213.61647    162104.27    72.123929     72.12393    35.983637          120    22231.531    20688.563   -27938.528   -13.315636   -2933.1856   -1152.8513    72.123929    62.461155    35.983637    4993.8551   -311883.74 
     490    209.07693    162111.25    72.124965    72.124965    35.984154          120     22063.12    21588.707   -25694.908   -113.13798   -3173.3731   -925.15928    72.124965    62.462052    35.984154    5985.6398   -311895.26 
     500    205.51309    162126.19    72.127181    72.127181    35.985259          120    20950.755    22063.432   -26427.908   -393.14154   -3408.2735   -263.21722    72.127181    62.463971    35.985259    5528.7596   -311908.22 
     510    200.97017    162147.74    72.130375    72.130376    35.986853          120    19659.434    21602.722   -29319.372   -680.02352   -3235.8001    143.13391    72.130375    62.466738    35.986853    3980.9277   -311918.41 
     520    197.03227    162173.15    72.134143    72.134144    35.988733          120    19267.765    20659.268   -33060.588   -859.57254   -2905.4376     244.7329    72.134143    62.470001    35.988733     2288.815      -311929 
     530    190.03044    162199.71    72.138082    72.138082    35.990698          120    18984.933    19952.707   -35897.144   -1024.9779   -2818.9417    598.21483    72.138082    62.473412    35.990698    1013.4985    -311933.5 
     540    184.63801    162225.47    72.141899      72.1419    35.992603          120    18458.784    19371.096   -37254.314   -849.29131   -2357.6925    612.28248    72.141899    62.476718    35.992603    191.85531    -311939.4 
     550    182.70549    162249.38    72.145443    72.145444    35.994371          120    17910.092    19441.024   -36339.028    -685.3639   -1924.9034    314.37214    72.145443    62.479787    35.994371    337.36274   -311951.66 
     560    178.07323    162271.82    72.148769     72.14877     35.99603          120    17802.776     20262.02   -34137.116   -424.13714   -1840.6652    596.68129    72.148769    62.482668     35.99603    1309.2266   -311958.51 
     570     175.1796    162294.35    72.152109    72.152109    35.997696          120    18367.432    20853.336    -31034.84   -301.54563   -2259.9391    328.46356    72.152109     62.48556    35.997696     2728.643    -311968.4 
     580    172.28717    162318.94    72.155752    72.155753    35.999514          120    18353.547    21239.296   -29232.308   -388.81753   -2607.3784    217.92317    72.155752    62.488715    35.999514    3453.5115   -311977.42 
     590    168.90487    162346.46    72.159831    72.159831    36.001549          120    18063.736    20833.972   -29424.814    169.84891   -2676.0315   -257.93977    72.159831    62.492247    36.001549     3157.631   -311985.57 
     600    168.01104    162376.23    72.164241    72.164242    36.003749          120    17770.994    19633.948   -31722.942    271.39384    -2933.578   -148.29173    72.164241    62.496067    36.003749    1894.0001   -311997.45 
     610    164.89561    162406.36    72.168704    72.168705    36.005976          120    17363.905    18745.904   -34337.288    291.75782   -2948.1495   -130.71224    72.168704    62.499932    36.005976    590.84002   -312004.49 
     620     160.1799    162434.94    72.172936    72.172937    36.008087          120    17198.709    18351.729   -36892.502    346.18175   -2918.2825   -678.82425    72.172936    62.503597    36.008087    -447.3545   -312008.41 
     630    158.20492    162460.62     72.17674    72.176741    36.009985          120    17369.926    18415.952   -38009.619   -219.93551   -2376.3543   -760.86369     72.17674    62.506891    36.009985   -741.24691    -312016.9 
     640    154.76677    162483.25    72.180092    72.180092    36.011657          120     17643.35    18399.161   -36893.109   -689.15142   -1985.9488   -525.48473    72.180092    62.509794    36.011657   -283.53229   -312022.58 
     650    151.72384     162503.7     72.18312     72.18312    36.013168          120    17993.149    18596.497   -35326.651   -1005.9561    -2179.369    -387.1439     72.18312    62.512416    36.013168    420.99821   -312028.13 
     660    147.83997    162523.23    72.186011    72.186011     36.01461          120    18358.676    18989.357   -33278.076   -932.97976   -1845.5473    -234.4835    72.186011     62.51492     36.01461    1356.6525    -312032.5 
     670    143.57966    162543.12    72.188956    72.188956     36.01608          120    18000.904    18526.386   -32324.795   -372.69412    -1955.651   -154.19032    72.188956     62.51747     36.01608    1400.8314   -312035.08 
     680    142.19632    162563.48     72.19197     72.19197    36.017584          120    16933.677    17964.814   -32498.878   -199.39923   -2423.7921    59.800042     72.19197     62.52008    36.017584    799.87142    -312042.8 
     690    140.94969    162583.41    72.194919    72.194919    36.019055          120    16268.128    17280.859   -34168.161   -286.12659   -2422.7057    115.41756    72.194919    62.522634    36.019055   -206.39125   -312050.36 
     700    138.91321    162601.55    72.197605    72.197606    36.020395          120    16058.778    17049.604   -35972.411     -883.466   -2718.0963   -30.711223    72.197605    62.524961    36.020395   -954.67637   -312056.28 
     710    137.16833    162616.92     72.19988     72.19988     36.02153          120    15623.011    16933.677   -37203.978   -1121.0412   -2877.7876   -187.03142     72.19988    62.526931     36.02153   -1549.0963   -312062.76 
     720     134.0152    162628.89     72.20165    72.201651    36.022413          120    15374.388    16763.881   -37424.505    -1117.679   -2575.3722   -375.22305     72.20165    62.528464    36.022413   -1762.0784   -312065.58 
     730     132.1402    162637.37    72.202905    72.202906    36.023039          120    15238.795    16949.237   -36983.647   -1174.1706   -2296.2354    -511.6574    72.202905    62.529551    36.023039   -1598.5382   -312070.87 
     740    131.08612     162642.9    72.203724    72.203724    36.023448          120    15399.978     17290.41   -35930.659   -881.09403   -2087.1594   -380.92859    72.203724     62.53026    36.023448   -1080.0901   -312076.97 
     750    128.11627    162646.34    72.204233    72.204234    36.023702          120    15146.903    16955.206   -35205.403   -952.10882   -2042.1087   -146.47238    72.204233    62.530701    36.023702   -1034.4317   -312079.41 
     760    125.09327    162647.97    72.204474    72.204474    36.023822          120    14823.846    16615.585   -34952.495   -743.72475    -2104.602    149.62313    72.204474    62.530909    36.023822   -1171.0212   -312081.53 
     770     123.8418    162647.75    72.204441    72.204442    36.023806          120    15025.177    16647.444   -35298.451   -724.32541   -2640.5998    347.26296    72.204441    62.530881    36.023806   -1208.6101   -312087.14 
     780     122.8626    162645.74    72.204145    72.204145    36.023658          120    15749.744    16579.468   -35928.488   -930.75276   -2595.0667    219.63195    72.204145    62.530624    36.023658   -1199.7585   -312093.01 
     790     121.1389    162642.07    72.203602    72.203602    36.023387          120    15771.508    16323.375   -35966.318   -943.77817   -2930.6673    263.18355    72.203602    62.530154    36.023387   -1290.4782   -312097.18 
     800    118.98808    162636.76    72.202815    72.202816    36.022994          120    16011.532    16587.625   -36176.609   -859.98953   -3192.7849    474.97681    72.202815    62.529473    36.022994   -1192.4837   -312099.93 
     810    116.23384    162630.07    72.201825    72.201825      36.0225          120    15927.847    17424.535   -35909.757    -620.1023   -3253.2439    449.49487    72.201825    62.528615      36.0225   -852.45825   -312101.29 
     820    115.36852    162622.48    72.200702    72.200703     36.02194          120    15487.351    17510.205   -35930.538   -583.12852   -2861.9298    334.09374    72.200702    62.527643     36.02194   -977.66082    -312106.2 
     830     114.2743    162613.97    72.199443    72.199443    36.021312          120    15380.457    17083.165   -35486.376   -726.54266   -2676.8595    509.58744    72.199443    62.526552    36.021312   -1007.5847   -312110.35 
     840    113.06022    162604.53    72.198045    72.198046    36.020615          120    15663.948    16779.064   -35330.566   -884.55281   -2394.9567    475.26082    72.198045    62.525342    36.020615   -962.51775   -312113.53 
     850    112.46477    162594.31    72.196533    72.196534     36.01986          120    16006.673     16978.84   -35272.151   -1056.1231   -2170.4186     283.3454    72.196533    62.524033     36.01986    -762.2127   -312118.15 
     860    111.57889    162583.62    72.194951    72.194951    36.019071          120    16396.086    16741.672   -35203.038    -872.9563   -2522.5639    720.44021    72.194951    62.522662    36.019071   -688.42653   -312122.03 
     870     109.2327    162572.62    72.193322    72.193322    36.018258          120    16413.538    17000.358   -35107.729   -784.29726   -2504.4252    309.70439    72.193322    62.521251    36.018258   -564.61097   -312122.95 
     880    109.02866    162561.51    72.191677    72.191678    36.017438          120    16547.883    17606.742   -35241.361   -852.19541    -2318.947   -27.569279    72.191677    62.519827    36.017438   -362.24488   -312127.56 
     890    108.54843    162550.56    72.190056    72.190057    36.016629          120    16725.323    17863.782   -35557.426   -626.77902   -2082.8924    75.180839    72.190056    62.518423    36.016629   -322.77377   -312131.15 
     900    107.36758    162539.86    72.188473    72.188474    36.015839          120    16967.042    18080.467   -35184.224   -450.05319    -2254.019    174.03348    72.188473    62.517052    36.015839   -45.571386   -312134.14 
     910    104.87045    162529.84    72.186989    72.186989    36.015098          120     17370.84    18479.075   -34292.392   -453.45657   -2214.4897    298.95579    72.186989    62.515767    36.015098    519.17441   -312134.01 
     920     104.3416    162521.22    72.185713    72.185714    36.014462          120    17860.187    18452.348   -33535.171   -525.97943   -2152.2251    426.82207    72.185713    62.514662    36.014462    925.78757   -312137.51 
     930    103.62139     162514.5    72.184719    72.184719    36.013966          120     17960.49        18562   -33462.075   -697.13305   -1893.7044    223.66654    72.184719    62.513801    36.013966    1020.1385   -312140.23 
     940    101.50551    162509.74    72.184013    72.184014    36.013614          120    17548.348    18975.716   -33362.326   -700.14087   -1698.6178   -126.60774    72.184013     62.51319    36.013614    1053.9125   -312140.11 
     950    100.94466    162506.81     72.18358     72.18358    36.013398          120    17056.411    19128.834   -33412.707   -683.57357   -1848.5327    190.26789     72.18358    62.512814    36.013398    924.17943   -312143.16 
     960    101.04414    162505.47    72.183381    72.183382    36.013299          120    16995.596    19206.251   -33522.052   -975.86723    -1765.107   -3.3432086    72.183381    62.512642    36.013299     893.2652   -312146.72 
     970    99.639561    162505.54    72.183392    72.183393    36.013304          120    17162.845    19302.704   -34024.118   -689.45602   -2087.1139   -300.38074    72.183392    62.512652    36.013304    813.81014      -312147 
     980    98.732998     162506.8    72.183579    72.183579    36.013397          120    17123.892    19153.743    -34563.06   -839.09945   -2086.0582   -419.07073    72.183579    62.512814    36.013397    571.52523   -312148.42 
     990    98.507253     162508.8    72.183875    72.183875    36.013545          120    17011.826    18669.043   -35284.299   -757.85451   -1929.1866   -518.23114    72.183875     62.51307    36.013545    132.18978   -312150.98 
    1000    96.437383    162510.95    72.184192    72.184193    36.013703          120    16999.992    18714.917   -35209.313   -568.69524   -1842.9365    -507.7254    72.184192    62.513345    36.013703    168.53188   -312150.11 
Loop time of 363.411 on 1 procs for 1000 steps with 14848 atoms

Performance: 0.238 ns/day, 100.948 hours/ns, 2.752 timesteps/s
98.2% CPU use with 1 MPI tasks x no OpenMP threads

MPI task timing breakdown:
Section |  min time  |  avg time  |  max time  |%varavg| %total
---------------------------------------------------------------
Pair    | 298.66     | 298.66     | 298.66     |   0.0 | 82.18
Bond    | 0.00056362 | 0.00056362 | 0.00056362 |   0.0 |  0.00
Kspace  | 13.666     | 13.666     | 13.666     |   0.0 |  3.76
Neigh   | 42.624     | 42.624     | 42.624     |   0.0 | 11.73
Comm    | 0.42144    | 0.42144    | 0.42144    |   0.0 |  0.12
Output  | 0.012924   | 0.012924   | 0.012924   |   0.0 |  0.00
Modify  | 7.9036     | 7.9036     | 7.9036     |   0.0 |  2.17
Other   |            | 0.1214     |            |       |  0.03

Nlocal:    14848 ave 14848 max 14848 min
Histogram: 1 0 0 0 0 0 0 0 0 0
Nghost:    46876 ave 46876 max 46876 min
Histogram: 1 0 0 0 0 0 0 0 0 0
Neighs:    1.01277e+07 ave 1.01277e+07 max 1.01277e+07 min
Histogram: 1 0 0 0 0 0 0 0 0 0

Total # of neighbors = 10127729
Ave neighs/atom = 682.094
Ave special neighs/atom = 0
Neighbor list builds = 133
Dangerous builds = 0
PPPM initialization ...
  using 12-bit tables for long-range coulomb (../kspace.cpp:321)
  G vector (1/distance) = 0.202676
  grid = 36 50 24
  stencil order = 5
  estimated absolute RMS force accuracy = 0.000993219
  estimated relative force accuracy = 6.89752e-05
  using double precision FFTs
  3d grid and FFT values/proc = 65395 43200
Setting up Verlet run ...
  Unit style    : metal
  Current step  : 0
  Time step     : 0.001
Per MPI rank memory allocation (min/avg/max) = 152.6 | 152.6 | 152.6 Mbytes
Step Temp Volume Cella Cellb Cellc CellGamma Pxx Pyy Pzz Pxy Pxz Pyz Lx Ly Lz Press PotEng 
       0    96.437383    162510.95    72.184192    72.184193    36.013703          120     17013.43    18729.353   -35200.405   -568.29233   -1842.6381   -507.86652    72.184192    62.513345    36.013703    180.79286    -312149.9 
      10    96.376597    162513.24    72.184531    72.184532    36.013872          120    17063.824    18985.639   -34894.582   -379.90099   -1904.3436   -330.09141    72.184531    62.513638    36.013872    384.96057   -312151.56 
      20    96.185814    162515.99    72.184939    72.184939    36.014076          120    17166.584    18988.583   -33823.087    41.497441   -2079.6601   -365.54779    72.184939    62.513991    36.014076    777.35988   -312153.47 
      30    95.388819    162519.75    72.185495    72.185496    36.014353          120     17500.93    18893.903   -32821.609    6.4294103   -2378.5073   -254.07537    72.185495    62.514473    36.014353    1191.0746   -312154.14 
      40    95.252928    162525.01    72.186275    72.186275    36.014742          120    18082.688     18489.04   -32930.956   -174.53607   -2537.5642   -15.251066    72.186275    62.515148    36.014742    1213.5909   -312155.79 
      50    95.466342    162531.74     72.18727    72.187271    36.015239          120    17971.558    18266.499   -33683.648   -224.00249   -2515.2359    66.019807     72.18727     62.51601    36.015239    851.46956   -312157.87 
      60    95.512237     162539.3    72.188391    72.188391    36.015798          120    17562.964    17807.313   -34541.383   -289.10515   -2636.2554    253.08062    72.188391    62.516981    36.015798    276.29796   -312159.39 
      70    95.020073    162546.88    72.189513    72.189513    36.016358          120    17205.737    17576.615   -34741.626   -354.31138   -2608.9562    174.58931    72.189513    62.517953    36.016358    13.575514   -312159.42 
      80    94.798365    162554.09     72.19058     72.19058     36.01689          120    17131.241    18113.278   -34644.621   -565.32678   -2136.2279    89.362713     72.19058    62.518877     36.01689    199.96623   -312159.97 
      90    94.042115    162561.26    72.191641    72.191642     36.01742          120    17609.214    18629.951   -33758.751   -494.08958   -1961.8249   -50.916288    72.191641    62.519796     36.01742    826.80464   -312159.56 
     100    94.050013     162569.2    72.192816    72.192816    36.018006          120    17888.368    18326.589   -33120.958   -333.93425   -2469.3938    212.16892    72.192816    62.520813    36.018006    1031.3328   -312159.84 
     110    94.338657    162578.18    72.194146    72.194147    36.018669          120    17886.701    17988.996     -33058.3   -460.65891   -2666.1167    85.198709    72.194146    62.521965    36.018669    939.13242   -312160.67 
     120    94.481895    162588.02    72.195602    72.195603    36.019396          120    17686.362    17633.558   -33646.055   -463.33176   -2871.3178   -459.62532    72.195602    62.523226    36.019396    557.95511   -312161.42 
     130    94.032681    162598.15    72.197101    72.197102    36.020144          120     16936.85    17832.005   -33971.138   -93.626356   -3225.7291   -566.60077    72.197101    62.524524    36.020144    265.90541   -312160.33 
     140    93.607695     162608.1    72.198574    72.198574    36.020878          120    16440.512     18121.32   -34347.256    105.31598   -2860.7681    -508.4657    72.198574      62.5258    36.020878    71.525246   -312159.67 
     150    93.446337    162617.61    72.199981    72.199982    36.021581          120    16251.547    18239.164   -34610.094   -177.27046   -2543.9845   -265.96152    72.199981    62.527019    36.021581   -39.794334   -312159.07 
     160    93.640387     162626.5    72.201298    72.201298    36.022237          120    15831.363    18428.285   -35040.527     -552.414   -2488.6017   -69.547039    72.201298    62.528159    36.022237   -260.29266   -312158.75 
     170    93.653044    162634.55    72.202489    72.202489    36.022832          120    16068.092    18111.103   -35010.447   -681.57546   -1973.8331   -92.101174    72.202489     62.52919    36.022832   -277.08419   -312157.66 
     180       95.293    162641.76    72.203556    72.203556    36.023364          120    16682.589    17825.823   -34593.988   -723.42656   -1686.6185   -338.47472    72.203556    62.530114    36.023364   -28.525571    -312160.3 
     190    96.229384    162648.56    72.204561    72.204562    36.023866          120    17539.725    17942.847   -34191.588   -495.19534   -2031.7136   -373.89746    72.204561    62.530985    36.023866     430.3282   -312160.75 
     200     96.19354     162655.6    72.205603    72.205603    36.024385          120    17642.371    18100.599   -33807.726   -191.91157   -2167.3907   -135.29863    72.205603    62.531887    36.024385    645.08132   -312159.06 
     210    96.251775    162663.16    72.206722    72.206722    36.024943          120    17177.854    17896.909   -33805.646    -228.7786   -2267.0588     130.0714    72.206722    62.532856    36.024943    423.03916   -312157.46 
     220    96.506828    162670.94    72.207874    72.207874    36.025518          120    17127.617    17975.982    -34372.89    148.54868   -2450.5094    139.06472    72.207874    62.533854    36.025518    243.56998   -312155.87 
     230     96.88644    162678.69    72.209019     72.20902     36.02609          120    17253.306    17791.501     -34351.8   -51.603904   -2448.9495   -295.96429    72.209019    62.534846     36.02609    231.00247   -312155.22 
     240    97.716898    162686.37    72.210156    72.210156    36.026657          120    17517.367    17744.789   -34353.267   -571.24951   -2678.4347   -415.67445    72.210156     62.53583    36.026657    302.96281   -312155.01 
     250     98.68274    162694.08    72.211297    72.211297    36.027226          120    17648.739    17660.811   -34556.985   -767.32487   -2856.7208    -656.9159    72.211297    62.536818    36.027226    250.85514   -312154.94 
     260    97.924178    162701.73    72.212429     72.21243    36.027791          120    17416.297    17551.416   -34966.685   -832.49501   -2764.9184   -399.00365    72.212429    62.537799    36.027791    0.3423439   -312151.18 
     270    98.841054    162708.97      72.2135    72.213501    36.028325          120    17009.053    17791.065   -35605.277   -585.39925     -2687.36    -334.6548      72.2135    62.538726    36.028325    -268.3862   -312150.88 
     280    100.32131    162715.42    72.214454    72.214454    36.028801          120    16686.005    17596.785   -35929.554   -457.49162   -2437.1162   -532.93073    72.214454    62.539552    36.028801   -548.92141   -312151.79 
     290    100.26204    162720.69    72.215234    72.215234     36.02919          120    16305.361    17347.595   -36083.167   -453.58024   -2032.6645   -306.30714    72.215234    62.540228     36.02919   -810.07065   -312149.41 
     300    101.22445     162724.5    72.215797    72.215797    36.029471          120    16246.143    17040.733   -35720.876   -555.02886    -1977.422   -480.47358    72.215797    62.540715    36.029471   -811.33332   -312149.48 
     310    101.97671    162726.89     72.21615    72.216151    36.029647          120    16181.664    17276.877   -35780.394   -496.93533   -2115.2089   -497.67132     72.21615    62.541021    36.029647   -773.95095   -312149.04 
     320    102.50649    162727.98    72.216312    72.216312    36.029728          120    16099.036    17522.268   -35837.449   -426.40675   -2331.8878   -584.26283    72.216312    62.541161    36.029728   -738.71498   -312148.39 
     330    101.47963    162727.93    72.216304    72.216305    36.029724          120    16024.515    17866.539   -35622.375   -305.62447   -2374.1531   -552.35775    72.216304    62.541155    36.029724   -577.10672   -312144.72 
     340    102.71796    162726.98    72.216164    72.216165    36.029655          120    16061.361    17808.868   -35645.126   -776.52643   -2603.2144   -1148.7609    72.216164    62.541034    36.029655   -591.63208   -312145.15 
     350    104.07632    162725.19    72.215899      72.2159    36.029522          120    16065.419    17585.685    -35561.04   -1050.3254   -2406.7093   -1148.1725    72.215899    62.540804    36.029522   -636.64508   -312146.43 
     360    104.33377    162722.54    72.215508    72.215508    36.029327          120    16044.831     17686.07   -35596.076   -937.94878   -2247.8602   -1309.7346    72.215508    62.540465    36.029327   -621.72496   -312145.52 
     370    103.92319    162719.07    72.214994    72.214995    36.029071          120    16188.164    17565.667   -36053.159   -705.87057   -2468.2334   -1185.8801    72.214994     62.54002    36.029071   -766.44265   -312143.36 
     380    103.80737    162714.62    72.214336    72.214336    36.028742          120    15990.548    17253.039   -35810.997   -728.43331   -2330.1502    -818.5694    72.214336     62.53945    36.028742   -855.80337   -312142.63 
     390    104.86425    162709.13    72.213523    72.213524    36.028337          120    15896.223    17132.613   -35290.638   -888.43714   -1870.1227   -504.47768    72.213523    62.538746    36.028337    -753.9342   -312144.38 
     400    105.03259    162702.76    72.212581    72.212581    36.027867          120    16107.378    17170.477   -35583.169    -912.3331   -1799.0988    48.981937    72.212581     62.53793    36.027867   -768.43788   -312143.72 
     410    106.17652    162695.58    72.211519     72.21152    36.027337          120    16535.067    17211.357   -35503.168   -927.50514   -1724.3847    165.28841    72.211519    62.537011    36.027337   -585.58126   -312145.45 
     420    105.66832    162687.88     72.21038    72.210381    36.026769          120    16725.857    17210.123   -34918.829   -713.51862   -1516.0735   -25.188469     72.21038    62.536024    36.026769   -327.61619   -312144.48 
     430    105.86208    162680.08    72.209226    72.209227    36.026193          120    16730.604    17679.919   -34554.226   -434.08052   -1906.1569   -395.34814    72.209226    62.535025    36.026193   -47.901141   -312144.77 
     440    106.13999    162672.59    72.208117    72.208117    36.025639          120    16771.399    18172.401   -34529.769   -597.08612   -2260.6962   -940.34537    72.208117    62.534064    36.025639    138.01069   -312145.77 
     450     105.6655    162665.69    72.207096    72.207097     36.02513          120    17205.326    18667.959   -34521.556   -686.45869   -2007.4832   -1268.0935    72.207096     62.53318     36.02513    450.57629   -312145.24 
     460    106.00753    162659.83    72.206229    72.206229    36.024698          120    17757.667    19072.066   -34266.374   -709.64359   -2189.1693    -1218.997    72.206229    62.532429    36.024698    854.45281   -312146.41 
     470    106.16064    162655.52    72.205591    72.205592     36.02438          120    17780.875    19536.819   -34134.077    -798.8086   -2178.1468   -938.58957    72.205591    62.531877     36.02438    1061.2053   -312147.54 
     480    106.60356    162653.01     72.20522    72.205221    36.024194          120    17892.531    19542.942   -34176.904   -730.49087   -1898.7827   -429.64195     72.20522    62.531556    36.024194    1086.1894   -312149.68 
     490    105.67917    162652.22    72.205103    72.205104    36.024136          120    17570.446    19258.394   -34359.126   -756.27648   -1989.0841   -31.340236    72.205103    62.531455    36.024136    823.23813   -312149.53 
     500     104.6864    162652.71    72.205176    72.205176    36.024172          120    17244.402    18919.372   -34366.362   -881.77181   -1861.3395    5.5448692    72.205176    62.531517    36.024172    599.13731   -312149.71 
     510    104.17564    162654.15    72.205389    72.205389    36.024279          120    17676.504    19115.448   -34258.377   -1054.9339    -1843.193    -36.35216    72.205389    62.531702    36.024279    844.52508   -312150.09 
     520    103.75987    162656.78    72.205778    72.205778    36.024473          120    17889.824     19027.43   -33819.491   -746.06711   -2204.2911   -229.94274    72.205778    62.532038    36.024473    1032.5877   -312151.45 
     530    103.77517    162660.81    72.206374    72.206375     36.02477          120    17942.169    18680.058   -33593.098   -530.02114   -2167.6861   -413.07609    72.206374    62.532555     36.02477    1009.7096   -312153.34 
     540    102.65613    162666.15    72.207164    72.207165    36.025164          120    17743.408     18642.01    -34045.27   -487.44688   -2147.5347   -927.43705    72.207164    62.533239    36.025164    780.04921   -312153.37 
     550    102.83175    162672.42    72.208092    72.208093    36.025627          120    17637.661    18381.756   -34178.785   -445.20785   -2052.7439   -1163.3533    72.208092    62.534043    36.025627    613.54394   -312156.15 
     560    102.73092    162679.32    72.209113    72.209114    36.026137          120     17473.28    18555.314   -34403.608   -560.97133   -1955.2057   -1015.7016    72.209113    62.534927    36.026137     541.6619   -312158.21 
     570    102.98108    162686.74    72.210212    72.210212    36.026685          120    17286.659    18793.794   -34076.283    -394.8321   -1466.7199   -821.02918    72.210212    62.535878    36.026685    668.05664   -312160.88 
     580    101.23621    162694.81    72.211405    72.211405     36.02728          120    17308.163    18664.269   -34119.584   -539.25526   -1700.4065   -353.98369    72.211405    62.536911     36.02728    617.61596   -312160.04 
     590     100.2677    162703.37    72.212671    72.212672    36.027912          120    17144.558    18296.229   -34810.883   -736.04568   -2015.1851   -210.20975    72.212671    62.538009    36.027912    209.96792   -312160.69 
     600    100.13146    162711.85    72.213926    72.213927    36.028538          120    17109.068    17986.537   -35362.291   -722.51551   -1973.3687   -259.30851    72.213926    62.539095    36.028538   -88.895414    -312162.4 
     610    99.619662    162719.83    72.215107    72.215108    36.029127          120    17444.296    17441.056   -35182.827   -657.69842    -2049.844   -5.8278289    72.215107    62.540118    36.029127    -99.15859   -312163.35 
     620    99.451447    162727.31    72.216213    72.216214    36.029679          120    17317.705    17560.044   -34704.406   -715.09013   -2031.7113    195.70144    72.216213    62.541076    36.029679    57.781256   -312165.38 
     630      98.8831    162734.53    72.217281    72.217281    36.030211          120    17279.942    17960.809    -34632.23   -1104.2072   -2085.6632     117.6327    72.217281       62.542    36.030211    202.84037    -312166.8 
     640    97.097377    162741.72    72.218344    72.218345    36.030742          120    17627.764    17920.494   -34783.078   -972.09512   -2093.8128   -166.97364    72.218344    62.542921    36.030742    255.06007   -312165.22 
     650    97.544456    162748.89    72.219405    72.219406    36.031271          120    17357.155    17454.335   -35302.233   -1140.2068    -1990.167    30.815555    72.219405     62.54384    36.031271   -163.58089   -312167.77 
     660    97.053614    162755.54    72.220389    72.220389    36.031762          120    17107.115     17476.56   -35321.945   -1223.3135   -2114.8161    123.60485    72.220389    62.544692    36.031762    -246.0898   -312168.31 
     670    97.334605    162761.49    72.221268    72.221269    36.032201          120    16752.338     17495.47   -35494.067    -1251.251   -2040.1441    345.83613    72.221268    62.545454    36.032201   -415.41961    -312170.6 
     680    96.772395    162766.52    72.222013    72.222013    36.032572          120    16497.883    17454.126   -35971.799   -1012.5634   -1997.0614      460.934    72.222013    62.546098    36.032572   -673.26349   -312171.01 
     690    96.871265    162770.32    72.222574    72.222575    36.032853          120    16041.732     17356.39   -35723.114   -606.69639   -1875.9014    252.55882    72.222574    62.546585    36.032853   -774.99737   -312172.51 
     700    95.587216    162772.79     72.22294    72.222941    36.033035          120    15896.263    17391.458    -35422.28   -338.60403    -2000.697    173.59892     72.22294    62.546902    36.033035   -711.51974   -312170.79 
     710    95.635724    162774.05    72.223126    72.223127    36.033128          120    15707.354    17481.939   -35429.774   -282.68619   -1754.3137     47.47289    72.223126    62.547063    36.033128   -746.82685   -312171.79 
     720    94.632334    162774.15    72.223141    72.223141    36.033135          120    15769.417    17670.462   -35270.696   -618.68012   -1609.9302    -50.71066    72.223141    62.547075    36.033135   -610.27246   -312170.72 
     730    94.708458    162773.32    72.223019    72.223019    36.033074          120    15811.605    17957.016   -35169.757   -1051.0447    -1566.011   -343.65155    72.223019     62.54697    36.033074   -467.04546   -312171.67 
     740    95.743712    162771.81    72.222795    72.222795    36.032962          120    15927.596     18145.91   -35477.252   -1058.1744   -1669.2415   -304.47105    72.222795    62.546775    36.032962   -467.91515   -312174.12 
     750    95.541373    162769.64    72.222474    72.222474    36.032802          120    16238.172    17843.758   -35641.787    -837.4198    -1971.843    38.952697    72.222474    62.546497    36.032802   -519.95247   -312173.74 
     760    95.071659    162766.78    72.222051    72.222052    36.032592          120    16835.261    17202.708   -35550.007   -661.14241   -1784.1384   -32.162183    72.222051    62.546132    36.032592   -504.01277    -312172.9 
     770    94.266787    162763.32    72.221539    72.221539    36.032336          120    17278.761    17233.013   -35506.281   -598.60665   -1711.0402   -126.53771    72.221539    62.545688    36.032336   -331.50258   -312171.48 
     780    95.332087     162759.5    72.220975    72.220975    36.032055          120    17677.574    17632.481   -35455.855    -638.9273   -1588.0508    440.51903    72.220975      62.5452    36.032055   -48.600226   -312173.35 
     790    96.186781     162755.8    72.220427    72.220428    36.031781          120    17965.863    17880.519   -35025.127   -666.95749   -1630.6223    495.48999    72.220427    62.544725    36.031781    273.75166   -312174.53 
     800     95.93245    162752.61    72.219955    72.219956    36.031546          120    17679.115     17746.78   -35063.724   -705.20993   -1528.0399    341.63607    72.219955    62.544317    36.031546    120.72354    -312173.2 
     810    96.754394     162749.7    72.219525    72.219525    36.031331          120    17538.044    17366.331   -35914.736   -607.25598   -1342.6791    128.09756    72.219525    62.543944    36.031331   -336.78702   -312174.06 
     820     95.43094    162746.44    72.219043    72.219043    36.031091          120    17687.099     16965.12   -36353.706    -755.1571   -1804.3972   -227.63099    72.219043    62.543526    36.031091    -567.1623   -312170.86 
     830    96.187525    162742.49    72.218458    72.218458    36.030799          120    17345.736     17050.49   -36389.736   -655.06182    -2002.713   -353.69629    72.218458     62.54302    36.030799    -664.5034   -312171.53 
     840    97.192647    162737.71    72.217752    72.217752    36.030447          120    16863.136    17356.768   -36136.531   -606.55763   -2063.0103   -274.20128    72.217752    62.542408    36.030447   -638.87573   -312171.89 
     850    96.854726     162732.2    72.216936    72.216937     36.03004          120    17229.907    17225.499   -35883.175   -555.38962   -2016.7451   -231.28814    72.216936    62.541702     36.03004   -475.92321   -312170.26 
     860    97.642213     162726.2    72.216048    72.216049    36.029597          120    17069.468    17757.981   -35701.659   -213.58289    -1941.305    -122.5011    72.216048    62.540933    36.029597   -291.40328   -312170.52 
     870    98.509437    162720.04    72.215137    72.215138    36.029142          120    16918.718    18433.409    -35108.39   -334.50098   -2319.2937    230.11152    72.215137    62.540144    36.029142    81.246007    -312171.1 
     880    98.600034    162714.27    72.214284    72.214285    36.028716          120    17040.631    18640.127   -34418.357   -654.38064   -2204.3732    172.38845    72.214284    62.539405    36.028716    420.80031   -312169.89 
     890     99.19943    162709.37    72.213559     72.21356    36.028355          120    16905.534    18771.405   -34082.428    -549.1299   -1844.4958    222.44366    72.213559    62.538777    36.028355    531.50347   -312169.42 
     900    99.516317    162705.44    72.212978    72.212978    36.028065          120     17031.97    18414.381   -34421.476   -523.15442   -1629.2015    885.00797    72.212978    62.538274    36.028065    341.62507   -312168.42 
     910    98.877029    162702.23    72.212502    72.212503    36.027827          120    17171.373    18225.103   -34507.295   -351.36826   -1942.1262    953.95965    72.212502    62.537862    36.027827    296.39355   -312165.49 
     920    99.376076    162699.58    72.212111    72.212112    36.027632          120    17117.069    18205.131   -34737.599   -489.51988   -2190.5777    996.97543    72.212111    62.537523    36.027632    194.86706   -312164.87 
     930    100.96692    162697.37    72.211783    72.211784    36.027469          120    17414.649    17919.406   -34645.227   -500.77494   -2058.1102    389.57182    72.211783    62.537239    36.027469    229.60894   -312166.22 
     940    100.45448    162695.62    72.211524    72.211525    36.027339          120    17695.327    17842.887   -34332.088   -410.83744   -1911.7055   -93.609817    72.211524    62.537015    36.027339    402.04197   -312163.95 
     950    100.96869    162694.53    72.211364    72.211364    36.027259          120    17751.273    18071.889   -34506.871   -522.54712   -1502.9406   -307.61493    72.211364    62.536876    36.027259    438.76387   -312163.47 
     960    101.49908    162694.16    72.211309    72.211309    36.027232          120    18005.865     18009.53   -34505.398   -887.24389   -1451.2135    144.37624    72.211309    62.536828    36.027232    503.33228   -312162.86 
     970    101.88591    162694.56    72.211368    72.211368    36.027261          120    17813.085    18261.809   -34537.061   -928.13207   -1722.3763    587.39538    72.211368     62.53688    36.027261    512.61091   -312162.52 
     980    102.81706     162695.7    72.211536    72.211537    36.027346          120    17493.872    18445.522   -34859.422   -686.73691   -1802.3762    369.96341    72.211536    62.537026    36.027346    359.99071   -312162.73 
     990    102.65158    162697.33    72.211778    72.211778    36.027466          120     17511.97    18093.183   -35124.981   -701.18243   -1625.5741    772.18594    72.211778    62.537235    36.027466    160.05741   -312160.84 
    1000    102.61817    162699.16    72.212049    72.212049    36.027601          120    17439.055    18121.585   -34959.436   -572.19732   -1565.8792    149.14879    72.212049    62.537469    36.027601    200.40146   -312159.43 
    1010    103.09806    162701.25    72.212358    72.212358    36.027755          120    17539.738    18751.277   -34731.309   -285.30103   -1937.0683   -172.16052    72.212358    62.537737    36.027755    519.90186   -312159.54 
    1020    103.86385    162704.03    72.212769     72.21277    36.027961          120    17660.133     18940.86   -34318.493   -189.41803   -2139.3785   -34.464236    72.212769    62.538093    36.027961    760.83347   -312160.13 
    1030    104.07996     162707.8    72.213327    72.213328    36.028239          120    17332.551    18857.099   -34127.212   -471.83801   -1958.2261   -153.24357    72.213327    62.538577    36.028239    687.47912   -312160.04 
    1040    104.09107    162712.47    72.214018    72.214018    36.028584          120    16978.946    18817.092   -33748.917   -427.79481   -2040.8927   -95.071037    72.214018    62.539175    36.028584    682.37363   -312159.47 
    1050    104.64251    162717.95    72.214829     72.21483    36.028988          120    17014.454    18835.084   -34359.306   -308.07193   -2073.0257    -266.7464    72.214829    62.539877    36.028988    496.74389   -312159.84 
    1060    104.64665    162723.94    72.215714    72.215715     36.02943          120    17014.757    18540.429   -35159.417   -573.53167   -2142.4725   -512.49301    72.215714    62.540644     36.02943    131.92309   -312159.57 
    1070    105.08406    162729.91    72.216597    72.216598    36.029871          120        17187    18179.927   -35189.156     -761.619    -2120.286   -317.93196    72.216597    62.541408    36.029871     59.25721   -312160.23 
    1080    105.12469    162735.75    72.217462    72.217463    36.030302          120    17491.087    17949.265   -34919.672   -807.44886    -1521.337   -225.26365    72.217462    62.542157    36.030302    173.56015    -312160.4 
    1090    105.02979    162741.58    72.218323    72.218324    36.030732          120    17551.528     17833.69   -35361.743   -823.78388   -1540.6736   -111.01767    72.218323    62.542903    36.030732    7.8249638    -312160.7 
    1100    103.94826    162747.21    72.219156    72.219156    36.031147          120    17491.275    18032.769   -35416.743   -548.48114   -1908.6134    12.613049    72.219156    62.543624    36.031147    35.767004   -312159.28 
    1110    104.43531     162752.7    72.219969     72.21997    36.031553          120    17600.815    18266.709    -34797.69   -281.78731   -1691.7275    407.47888    72.219969    62.544328    36.031553    356.61139   -312160.87 
    1120    103.17437    162758.49    72.220825    72.220826     36.03198          120    17435.902    18405.345   -34352.652   -352.50688   -2011.3799    438.90058    72.220825     62.54507     36.03198    496.19833   -312159.37 
    1130    103.90231    162764.74     72.22175     72.22175    36.032441          120    17083.639     18431.12   -34685.421   -543.44747    -2043.377   -275.09358     72.22175     62.54587    36.032441    276.44584   -312161.69 
    1140    102.21385    162771.13    72.222694    72.222695    36.032912          120     16646.37    18195.652   -35440.248   -610.12134   -1855.2676   -225.03326    72.222694    62.546689    36.032912    -199.4089   -312159.38 
    1150    102.96957    162776.92    72.223551    72.223551     36.03334          120      15985.9    17580.897   -36003.345   -783.97285   -2455.4675   -67.357696    72.223551     62.54743     36.03334   -812.18266   -312162.32 
    1160    102.42999    162781.36    72.224207    72.224207    36.033667          120    15963.914    17659.583   -35634.561   -1001.3198   -2309.5117   -147.32202    72.224207    62.547999    36.033667    -670.3545   -312162.52 
    1170    102.26701    162784.62    72.224689     72.22469    36.033908          120    16420.772    17676.207   -35069.554   -708.24065   -2026.4257   -399.65724    72.224689    62.548417    36.033908   -324.19171   -312163.85 
    1180    100.79573    162787.29    72.225084    72.225084    36.034105          120    17066.943    17856.335   -34395.066    -652.1515   -2088.0234   -460.88061    72.225084    62.548758    36.034105    176.07076   -312162.67 
    1190    101.89193    162790.07    72.225495    72.225496     36.03431          120    17398.553    17796.275    -34159.74   -672.77216   -1777.2797    -15.07776    72.225495    62.549114     36.03431    345.02962   -312166.15 
    1200    100.82955    162793.15    72.225951    72.225951    36.034537          120    16870.656    17488.287   -35014.649   -561.45564   -1428.5464    73.763444    72.225951    62.549509    36.034537   -218.56859   -312165.84 
    1210    100.81852     162795.8    72.226343    72.226344    36.034733          120    16068.932    17292.369   -35249.923    -490.1306   -1302.8268    31.750038    72.226343    62.549849    36.034733   -629.54075   -312167.71 
    1220    100.28068    162797.38    72.226577    72.226578     36.03485          120     15511.23    17059.745   -35657.292   -577.64563   -1742.2201   -216.07509    72.226577    62.550051     36.03485   -1028.7722    -312168.2 
    1230    99.546338     162797.4    72.226579     72.22658    36.034851          120     15729.83    16879.211    -35804.71   -541.19216   -2254.5246   -444.78905    72.226579    62.550053    36.034851   -1065.2228   -312168.53 
    1240    99.021322     162795.8    72.226344    72.226344    36.034733          120    16346.127    16655.013   -35813.143   -639.67768   -2465.1527   -376.02107    72.226344    62.549849    36.034733   -937.33432   -312169.05 
    1250    99.014133    162792.83    72.225904    72.225904    36.034514          120    16147.615    16606.005   -35594.442   -714.07443   -2270.4331   -192.47724    72.225904    62.549468    36.034514   -946.94062   -312170.22 
    1260    99.076804    162788.55    72.225271    72.225271    36.034198          120    16049.331    16881.519   -35533.074   -359.01741   -1957.5038    29.434876    72.225271     62.54892    36.034198   -867.40805   -312171.98 
    1270    99.406348    162783.14    72.224471    72.224471    36.033799          120    16164.956    17412.072   -35336.527   -266.96594   -2064.0439    464.64365    72.224471    62.548227    36.033799   -586.49986    -312173.6 
    1280    99.150504    162777.02    72.223565    72.223566    36.033347          120    16235.862    17731.422   -35417.044   -234.28544   -1977.6293    366.76161    72.223565    62.547443    36.033347   -483.25339    -312174.5 
    1290    98.226981    162770.45    72.222594    72.222594    36.032862          120    16693.118    18096.077   -35084.257   -172.87115   -2046.6255    283.44164    72.222594    62.546602    36.032862   -98.354054   -312173.63 
    1300    98.005494    162763.98    72.221637    72.221637    36.032385          120    17134.738    18219.203    -34894.53   -335.50034   -2152.3597    344.80057    72.221637    62.545773    36.032385    153.13701   -312174.57 
    1310    97.115791    162757.94    72.220743    72.220744    36.031939          120    16989.948    18080.622   -35021.495   -603.16959   -2142.1934    240.82877    72.220743    62.544999    36.031939    16.358122   -312173.85 
    1320    96.828497    162752.17     72.21989     72.21989    36.031513          120    16969.362    17992.392   -35094.782   -286.39434   -2231.9331      721.974     72.21989     62.54426    36.031513   -44.342549   -312174.16 
    1330    96.568448    162746.57    72.219062    72.219063      36.0311          120    16838.603    18300.374   -34913.155   -427.78521    -1928.477     569.0747    72.219062    62.543543      36.0311    75.273878   -312174.67 
    1340    96.774069    162741.32    72.218285    72.218286    36.030713          120    16901.553    18434.903    -34675.04   -535.48984   -1977.0888    58.106827    72.218285     62.54287    36.030713    220.47189   -312175.96 
    1350    96.035974    162736.59    72.217585    72.217586    36.030363          120     17259.11    18371.538   -34738.252   -157.60869   -2113.2099    145.14851    72.217585    62.542264    36.030363    297.46507   -312174.87 
    1360    96.107682    162732.55    72.216989    72.216989    36.030066          120    18031.361    18408.676    -34112.83   -43.969282   -2333.6739   -73.076028    72.216989    62.541747    36.030066     775.7357   -312175.65 
    1370    96.312561     162729.8    72.216581    72.216581    36.029862          120    18277.134    18413.004   -34037.894   -542.59975   -2585.8231   -123.30936    72.216581    62.541394    36.029862    884.08144   -312176.34 
    1380    96.321224    162728.48    72.216387    72.216387    36.029765          120    18101.029    18288.708   -33777.147   -571.90679   -2921.4941   -49.117281    72.216387    62.541226    36.029765     870.8632   -312176.69 
    1390    96.843801    162728.52    72.216392    72.216393    36.029768          120    18030.683     18016.91   -33789.595   -517.22024   -2832.4421   -111.07665    72.216392    62.541231    36.029768    752.66629   -312177.52 
    1400     97.95322     162729.7    72.216566    72.216567    36.029855          120    18063.491    18101.081   -34229.321   -502.87306   -2280.2114     8.523326    72.216566    62.541382    36.029855    645.08377   -312179.62 
    1410    97.202669    162731.82     72.21688     72.21688    36.030012          120    18073.304    18047.259   -34384.672   -108.68929    -2087.746    321.37591     72.21688    62.541653    36.030012    578.63014   -312177.92 
    1420    96.184436    162734.72    72.217309     72.21731    36.030226          120    18147.609    17783.779   -34571.481   -26.277215   -2143.9336    570.23119    72.217309    62.542025    36.030226    453.30236   -312175.77 
    1430    97.420399    162738.22    72.217826    72.217827    36.030484          120    18235.458    17722.643   -34370.392   -200.78395   -2239.5119    252.55763    72.217826    62.542473    36.030484    529.23652   -312178.01 
    1440    97.491615    162742.44     72.21845    72.218451    36.030795          120    18501.304    18247.674   -34169.201   -588.58626   -2225.5519    191.35647     72.21845    62.543013    36.030795    859.92591   -312177.58 
    1450    97.359172    162747.78    72.219241    72.219241    36.031189          120    18425.258    18965.557    -34224.76   -687.19446   -2112.2676    194.84526    72.219241    62.543698    36.031189    1055.3518   -312176.46 
    1460    97.522654    162754.46     72.22023     72.22023    36.031683          120    18060.613    18951.798   -34371.827   -459.92375   -2324.8999    390.80379     72.22023    62.544554    36.031683    880.19482   -312175.99 
    1470    96.712876    162762.27    72.221384    72.221384    36.032258          120    17759.187    18991.011   -34314.501    -253.6109   -2739.0922    599.64068    72.221384    62.545554    36.032258    811.89889    -312173.8 
    1480    97.955368    162770.98    72.222672    72.222672    36.032901          120     17391.82    18883.887     -34708.2   -24.934675   -2580.0332    301.49126    72.222672    62.546669    36.032901    522.50237    -312175.2 
    1490    98.790338    162780.15    72.224029     72.22403    36.033578          120    17097.618    18741.277   -35172.196   -274.79591   -2181.7648    162.37231    72.224029    62.547845    36.033578    222.23307   -312176.01 
    1500    98.962018    162789.35     72.22539     72.22539    36.034257          120    16979.226    18542.092   -35168.165   -584.50677   -1626.4885    526.19251     72.22539    62.549023    36.034257    117.71755   -312175.16 
    1510    98.367337    162798.37    72.226724    72.226724    36.034923          120    16650.928    18216.614   -35253.037   -628.99907   -1372.4667    555.52635    72.226724    62.550178    36.034923   -128.49822   -312172.85 
    1520    98.549068    162806.85    72.227977    72.227977    36.035548          120    16649.003    17822.038    -35930.39   -608.93705   -1622.0653    423.83369    72.227977    62.551263    36.035548   -486.44957   -312172.05 
    1530    100.51376     162814.3    72.229078    72.229079    36.036097          120    16558.463    17557.567   -35891.289   -210.83254   -2083.5762    415.47457    72.229078    62.552217    36.036097   -591.75295   -312174.37 
    1540    100.22346    162820.63    72.230015    72.230015    36.036565          120    16640.782    17711.106   -35223.491   -206.18498   -2520.4624    133.45622    72.230015    62.553028    36.036565   -290.53423   -312172.88 
    1550     99.11466    162826.29    72.230853    72.230853    36.036983          120    16725.599    18056.527   -34640.516   -675.69738   -2556.2667    15.780423    72.230853    62.553754    36.036983    47.203398   -312169.21 
    1560    101.20481    162831.76    72.231661    72.231662    36.037386          120    17005.945    17661.132   -34658.682   -701.59971   -2183.0806    207.74878    72.231661    62.554454    36.037386    2.7980925    -312172.4 
    1570    101.46441    162837.03    72.232439     72.23244    36.037774          120    16920.903    17457.191   -34788.857   -809.79373   -2352.3592     102.4265    72.232439    62.555128    36.037774   -136.92057    -312171.8 
    1580    101.11959    162841.86    72.233154    72.233155    36.038131          120    16633.833    17489.925     -35495.4   -765.15375   -2436.8641    139.12562    72.233154    62.555747    36.038131   -457.21408   -312169.92 
    1590    101.05475    162845.82     72.23374     72.23374    36.038423          120    16547.355    17326.673   -36210.476   -502.63967   -2018.8964    27.763787     72.23374    62.556254    36.038423   -778.81584   -312168.92 
    1600    101.03663    162848.47    72.234132    72.234132    36.038619          120    16725.248    17074.772   -36409.321   -474.80933   -2147.7771    60.713095    72.234132    62.556594    36.038619   -869.76725   -312167.78 
    1610    101.19935    162849.72    72.234316    72.234317    36.038711          120    16764.324    17082.334    -36282.03    -598.4877   -2230.6965     233.5763    72.234316    62.556753    36.038711   -811.79057   -312167.02 
    1620    102.35446    162849.66    72.234308    72.234308    36.038707          120    16744.977    16799.088   -35907.118   -649.95389   -2353.2347     140.4489    72.234308    62.556746    36.038707   -787.68425   -312168.77 
    1630    102.17349    162848.41    72.234122    72.234123    36.038614          120    16558.655     17105.21   -35868.857   -703.20622   -2723.5814   -47.986045    72.234122    62.556586    36.038614   -734.99726   -312167.49 
    1640    103.01457    162846.11    72.233783    72.233783    36.038445          120    16550.278     17720.34   -35656.454    -580.2841   -2681.5963   -54.880033    72.233783    62.556292    36.038445   -461.94522   -312168.46 
    1650    102.65643    162843.23    72.233357    72.233357    36.038232          120    16841.079    17924.708   -34753.068   -466.06831   -2600.3909   -47.469321    72.233357    62.555922    36.038232    4.2396411   -312167.18 
    1660    103.16157     162840.4    72.232938    72.232938    36.038023          120    16908.323    17840.156   -34393.671   -633.29282   -2378.4629     -191.701    72.232938     62.55556    36.038023    118.26925   -312168.01 
    1670    102.17898    162837.86    72.232563    72.232564    36.037836          120    17341.612    17731.799   -34341.299   -548.18317   -2689.2523   -61.001888    72.232563    62.555235    36.037836    244.03741   -312165.69 
    1680    102.73092    162835.75    72.232251    72.232252     36.03768          120    17484.256    17730.141   -34815.306   -789.13564   -2808.3227    15.126805    72.232251    62.554965     36.03768    133.03036   -312166.62 
    1690    103.45191    162833.94    72.231984    72.231984    36.037547          120    17580.613    17553.773   -34740.979   -732.62261   -2677.7971   -25.909221    72.231984    62.554733    36.037547    131.13545   -312167.45 
    1700    103.15844    162832.38    72.231752    72.231753    36.037432          120    17287.719    17600.439   -34811.528   -503.57973     -2600.82   -16.058386    72.231752    62.554533    36.037432    25.543419   -312166.87 
    1710      102.679    162830.95     72.23154    72.231541    36.037326          120     17679.94    17919.132   -35176.841   -824.13808    -2269.649   -79.068508     72.23154    62.554349    36.037326    140.74382   -312166.13 
    1720    102.81959     162829.8    72.231371    72.231372    36.037241          120    17899.953     18209.64   -34878.256    -867.3183   -2560.7165     46.45839    72.231371    62.554203    36.037241    410.44553   -312166.77 
    1730    102.77628    162829.32    72.231299      72.2313    36.037206          120    17987.518    18055.412   -34396.923   -794.65402   -2580.6784    50.274468    72.231299    62.554141    36.037206    548.66875    -312167.2 
    1740    103.25408    162829.61    72.231342    72.231343    36.037227          120    17803.316    17701.936   -34678.479    -764.2495   -2085.7161   -290.21006    72.231342    62.554178    36.037227    275.59109   -312168.03 
    1750    103.50365    162830.31    72.231446    72.231447    36.037279          120    17519.386    17618.625   -35034.742   -456.03328   -2093.4123   -265.25612    72.231446    62.554268    36.037279     34.42302   -312168.94 
    1760    102.57202    162831.04    72.231554    72.231555    36.037333          120    17171.999     17442.48   -35153.485   -444.54393   -2538.0092    215.35878    72.231554    62.554361    36.037333   -179.66873   -312167.98 
    1770    102.08086    162831.41    72.231609     72.23161     36.03736          120    16725.065    17264.236     -35862.7   -561.74022   -2473.5687    124.56665    72.231609    62.554409     36.03736   -624.46635   -312168.29 
    1780    101.08209    162830.92    72.231537    72.231537    36.037324          120    17214.798    17263.012   -35946.592   -815.45112   -2938.3222    118.10407    72.231537    62.554346    36.037324   -489.59434   -312167.08 
    1790     102.7857    162829.68    72.231353    72.231353    36.037232          120    17474.619    17331.997   -35971.862   -1036.8903   -3151.9111   -237.47879    72.231353    62.554187    36.037232   -388.41534   -312170.81 
    1800    101.77164    162827.92    72.231092    72.231093    36.037102          120    17406.471    17431.953   -35688.644   -740.31813   -2897.7589   -464.05144    72.231092    62.553961    36.037102   -283.40674   -312169.74 
    1810    101.27468     162825.7    72.230765    72.230765    36.036939          120    17094.202    17228.253   -36340.571   -385.29921   -2713.6243    55.316362    72.230765    62.553678    36.036939   -672.70523   -312169.82 
    1820    100.52312     162822.6    72.230306    72.230306     36.03671          120    16751.616    17175.376    -35969.07   -669.06115   -2310.8674    353.22973    72.230306     62.55328     36.03671   -680.69262   -312169.55 
    1830    101.09904    162818.64     72.22972    72.229721    36.036418          120    17128.356    17480.579   -35042.119   -606.03148   -1853.0413    182.45631     72.22972    62.552773    36.036418   -144.39471   -312172.19 
    1840    100.52085    162814.59    72.229122    72.229122    36.036119          120    17667.565    17791.364   -34405.607   -505.87558   -1899.7766   -215.79768    72.229122    62.552255    36.036119     351.1075   -312172.14 
    1850    100.19289    162811.19    72.228619     72.22862    36.035868          120    17856.071    18298.256   -34363.925    -607.1541   -2196.8685   -364.27925    72.228619     62.55182    36.035868    596.80056    -312172.8 
    1860    99.539277    162808.76     72.22826    72.228261    36.035689          120    18070.448    18131.026   -34867.228   -438.39917   -2119.8618   -56.368725     72.22826    62.551509    36.035689    444.74887   -312172.89 
    1870    99.527571    162807.09    72.228013    72.228013    36.035566          120    18002.759    17733.454   -35098.053   -524.91463   -2359.4387    49.432307    72.228013    62.551294    36.035566    212.72006   -312173.48 
    1880    99.679303    162805.78    72.227818    72.227819    36.035469          120    17317.111    17930.085   -35503.633   -300.67537   -2294.0241    -158.7074    72.227818    62.551126    36.035469   -85.479075   -312174.99 
    1890    98.573237    162804.43     72.22762     72.22762     36.03537          120    16965.443    18142.338    -35055.05   -205.24456   -2115.0375    -88.79828     72.22762    62.550954     36.03537    17.577002   -312173.65 
    1900    98.229388    162803.17    72.227433    72.227434    36.035277          120    17382.509    18360.713   -34874.697   -163.06286   -2131.0351   -204.90026    72.227433    62.550793    36.035277    289.50849   -312174.18 
    1910     98.41363     162802.4     72.22732     72.22732     36.03522          120    17733.474    18425.424   -34339.182   -133.12275   -2523.4132   -293.37239     72.22732    62.550694     36.03522    606.57215   -312175.75 
    1920     98.71629    162802.54    72.227341    72.227341    36.035231          120    17921.211    18496.498   -34614.133   -348.94274    -2526.498   -416.48882    72.227341    62.550712    36.035231    601.19184   -312176.85 
    1930    98.566646    162803.56     72.22749    72.227491    36.035305          120    17422.964     18624.19   -35004.533   -534.50918   -2533.0944   -196.37806     72.22749    62.550842    36.035305    347.54019    -312177.1 
    1940     98.37084    162805.07    72.227714    72.227715    36.035417          120    17513.658    18167.791   -35299.868   -736.31247   -2135.9247   -32.489703    72.227714    62.551036    36.035417    127.19348    -312177.4 
    1950    97.617297    162806.72    72.227959    72.227959    36.035539          120    17504.552    17672.336   -35460.576   -642.74591   -2116.5886   -71.769703    72.227959    62.551248    36.035539   -94.562594   -312176.85 
    1960    98.460374    162808.16    72.228171    72.228172    36.035645          120    17156.093    17525.985   -35708.668   -445.58885   -1940.9592     266.2112    72.228171    62.551432    36.035645    -342.1966   -312179.08 
    1970    97.515505    162809.05    72.228303    72.228303    36.035711          120    16920.042    17395.242   -35599.097   -411.51428   -1586.1998   -274.90805    72.228303    62.551546    36.035711    -427.9378    -312178.2 
    1980    97.714888    162809.28    72.228337    72.228338    36.035728          120    17090.332    17398.773   -35495.648    -350.5901   -1852.2217   -446.07098    72.228337    62.551576    36.035728   -335.51446   -312179.19 
    1990    97.359876    162809.02    72.228298    72.228298    36.035708          120    17281.723    17331.751   -35019.559   -163.52955   -2028.0143    81.256687    72.228298    62.551541    36.035708   -135.36147   -312178.61 
    2000    97.214238    162808.55    72.228228    72.228229    36.035673          120      17534.3    17680.146   -34917.742    -273.8664   -2297.3051    275.82987    72.228228    62.551481    36.035673    98.901146   -312178.91 
    2010    97.551247    162808.24    72.228183    72.228184    36.035651          120    17947.481    17532.442   -34744.093   -297.27184   -2224.0174    149.29248    72.228183    62.551442    36.035651    245.27689    -312179.8 
    2020    96.718376    162808.27    72.228187    72.228188    36.035653          120    17872.241    17145.987   -34938.605   -16.768072   -2350.7193    232.84707    72.228187    62.551445    36.035653    26.540688   -312178.29 
    2030    96.530018    162808.34    72.228197    72.228197    36.035658          120    17720.671    17083.393   -35445.038   -103.23123   -2630.4772    591.72106    72.228197    62.551454    36.035658   -213.65804   -312177.52 
    2040    96.620343    162808.05    72.228155    72.228156    36.035637          120    17435.495    17112.912   -36069.289   -206.59536   -2469.9336    285.82091    72.228155    62.551418    36.035637   -506.96057   -312177.55 
    2050    97.875512    162807.07    72.228009     72.22801    36.035564          120     17400.04    17069.022    -35910.19   -341.95881   -2191.0927    321.96656    72.228009    62.551291    36.035564   -480.37592   -312179.66 
    2060    97.541373    162805.35    72.227756    72.227756    36.035438          120    17338.479    16956.163   -35993.162   -478.20381   -1680.2827    209.97516    72.227756    62.551072    36.035438   -566.17359   -312178.41 
    2070    97.669625    162802.87    72.227389    72.227389    36.035254          120     17650.13     16849.82   -35619.222   -536.83171   -1550.7117    186.59833    72.227389    62.550754    36.035254    -373.0907    -312178.5 
    2080    97.723138     162799.9     72.22695     72.22695    36.035035          120    17174.513    16903.461   -34642.788   -346.93456   -1965.7759    269.59682     72.22695    62.550374    36.035035   -188.27161   -312178.25 
    2090    98.785517    162796.69    72.226475    72.226475    36.034798          120    16756.249    17137.186   -34804.927   -249.10628   -2213.0435    360.97387    72.226475    62.549962    36.034798   -303.83079   -312179.56 
    2100    98.741815    162793.18    72.225955    72.225956    36.034539          120    16880.884    17397.465   -34640.744   -501.35504   -1992.5187     309.2756    72.225955    62.549513    36.034539    -120.7982   -312178.73 
    2110    98.461949    162789.55    72.225418    72.225419    36.034271          120    16819.487    17594.556   -34984.298   -431.90509    -2284.976    165.44467    72.225418    62.549048    36.034271   -190.08509   -312177.62 
    2120    98.432956    162785.79    72.224863    72.224864    36.033994          120    17230.095      17555.9   -34827.797   -473.29137   -2152.4343    20.741495    72.224863    62.548567    36.033994   -13.933837   -312176.77 
    2130    98.947114    162782.12     72.22432     72.22432    36.033723          120    17880.935    17584.262   -35278.826   -364.95372   -2042.8673     -274.629     72.22432    62.548096    36.033723    62.123704   -312176.75 
    2140      98.9878    162778.67     72.22381     72.22381    36.033469          120    17974.901     17786.04   -35302.173    -310.2638   -2603.2892    -283.9771     72.22381    62.547655    36.033469    152.92286   -312175.76 
    2150    99.437833    162775.55    72.223348    72.223349    36.033239          120    18065.562    17924.092   -35451.881   -304.48378   -2396.9765   -359.03415    72.223348    62.547255    36.033239      179.258      -312176 
    2160    99.150227    162772.87    72.222952    72.222952    36.033041          120    18474.755    18145.584   -35029.277   -77.814194   -2141.1495    144.72001    72.222952    62.546911    36.033041    530.35433   -312174.54 
    2170    100.03853    162771.06    72.222684    72.222684    36.032907          120     17988.32     18279.68   -33987.171    -82.70275   -2144.3972    541.85267    72.222684    62.546679    36.032907    760.27627   -312175.04 
    2180    99.464193    162770.46    72.222595    72.222596    36.032863          120    17933.074    18415.543   -33532.035    58.635202   -2243.9521    768.38578    72.222595    62.546603    36.032863     938.8605   -312172.78 
    2190    100.28325    162771.29    72.222718    72.222719    36.032924          120    18027.555    18422.842   -33584.275    78.195626   -2622.5204     819.4101    72.222718    62.546709    36.032924    955.37359   -312173.36 
    2200    101.09106    162773.46     72.22304     72.22304    36.033085          120    17816.646    18213.031   -34612.896   -259.93009   -2517.5457    249.54711     72.22304    62.546988    36.033085    472.26021   -312174.36 
    2210    101.01882    162776.34    72.223465    72.223466    36.033297          120    17890.442    17836.258   -34700.128   -256.60267   -2027.4852    258.69847    72.223465    62.547356    36.033297    342.19065   -312173.24 
    2220    101.85438    162779.69    72.223961    72.223962    36.033545          120    18393.246    18091.024   -34613.226   -26.197164   -1851.2152    137.23607    72.223961    62.547786    36.033545    623.68153   -312173.69 
    2230    101.46566    162783.88    72.224581    72.224581    36.033854          120    18504.149    18694.166   -34651.517    -16.24355   -1680.3191    97.862603    72.224581    62.548322    36.033854    848.93264   -312172.11 
    2240     101.8457     162789.2    72.225367    72.225367    36.034246          120    18196.722    18612.671    -34516.87   -181.19915   -1587.4162   -207.98541    72.225367    62.549003    36.034246    764.17439   -312171.83 
    2250    101.30453    162795.43    72.226289    72.226289    36.034706          120    17608.141    18314.163   -35223.643   -497.08874   -1764.6022   -209.34614    72.226289    62.549802    36.034706    232.88696   -312169.91 
    2260    101.72669    162801.83    72.227235    72.227235    36.035178          120     17254.34    17645.585   -35620.922   -571.85411   -1897.8267    204.65622    72.227235    62.550621    36.035178   -240.33241   -312170.06 
[...]
   99200    100.14368    162972.29    72.252435    72.252435     36.04775          120    17597.544    17874.886   -35069.332   -249.03716   -2762.0606    405.80026    72.252435    62.572445     36.04775    134.36593   -312192.72 
   99210    99.710854    162968.46    72.251868    72.251868    36.047467          120    17621.126    17650.697   -34723.592   -449.70269    -2705.432    103.16768    72.251868    62.571954    36.047467    182.74368    -312191.9 
   99220    101.61329    162964.89    72.251341    72.251342    36.047205          120     17882.29    17966.334   -34929.676   -397.79992   -2708.5428    468.27726    72.251341    62.571498    36.047205    306.31624   -312196.11 
   99230    99.940235    162961.86    72.250893    72.250894    36.046981          120    18055.124    18100.046   -34222.886   -508.99691   -2567.6422    806.99305    72.250893     62.57111    36.046981    644.09447   -312193.24 
   99240    100.18804    162959.78    72.250585    72.250586    36.046827          120    18104.923     18192.22   -34660.216   -409.16263   -2041.1076    371.13468    72.250585    62.570843    36.046827    545.64242   -312193.84 
   99250    100.17158    162958.52    72.250399      72.2504    36.046735          120    17768.412    18191.842    -35143.02   -245.97808   -2174.7036    323.60279    72.250399    62.570682    36.046735    272.41096   -312194.41 
   99260    99.072368    162957.72    72.250281    72.250281    36.046676          120    17650.658    18452.016   -35229.339   -395.14885   -2254.2108    359.58103    72.250281    62.570579    36.046676    291.11138   -312192.52 
   99270    99.781511    162957.41    72.250235    72.250235    36.046653          120    18208.748    18682.622    -34939.11   -718.75399   -2099.1223     307.4031    72.250235    62.570539    36.046653    650.75335   -312193.95 
   99280    99.759965    162958.05     72.25033     72.25033      36.0467          120    18448.132     18659.55   -34903.046   -727.47819   -2368.5962    212.99501     72.25033    62.570622      36.0467    734.87869   -312194.35 
   99290    100.06407    162959.82    72.250591    72.250591     36.04683          120    18492.177    18083.879   -34541.996   -599.66615   -2320.5915   -135.54198    72.250591    62.570848     36.04683    678.02004   -312195.33 
   99300     99.70085    162962.63    72.251006    72.251007    36.047038          120    18144.325    17763.528   -34329.635   -609.65724   -2445.2713   -127.44631    72.251006    62.571207    36.047038    526.07266    -312194.5 
   99310    99.289653    162966.24    72.251541    72.251541    36.047304          120    17566.899    18232.234    -34850.61   -517.42211   -2641.0067    44.928679    72.251541     62.57167    36.047304    316.17447   -312194.26 
   99320     100.0608     162970.4    72.252156    72.252156    36.047611          120    17811.165     18456.98   -34641.626   -721.88121   -2406.8454    300.73224    72.252156    62.572203    36.047611    542.17308   -312195.68 
   99330    98.672263     162975.4    72.252893    72.252894    36.047979          120     18214.78    18236.834   -34482.039   -833.63892   -2424.1828    566.59005    72.252893    62.572842    36.047979     656.5246   -312192.66 
   99340    100.23819    162981.33     72.25377    72.253771    36.048417          120    18118.906    18080.965   -35097.698   -726.83068   -2098.9618    910.94916     72.25377    62.573601    36.048417    367.39088   -312195.53 
   99350    99.910184    162987.88    72.254739    72.254739      36.0489          120      18047.3    18036.441   -34907.663   -678.98708   -2050.9436    858.42208    72.254739     62.57444      36.0489    392.02592   -312195.22 
   99360    99.969999    162995.02    72.255793    72.255793    36.049426          120    17846.861    17826.871   -34899.462   -682.49538   -2582.9649    393.82948    72.255793    62.575353    36.049426    258.08961   -312195.31 
   99370    99.845948    163002.53    72.256903    72.256904     36.04998          120    17064.262    17795.617   -35004.424    -386.0541   -2661.7424    293.70563    72.256903    62.576315     36.04998   -48.181436   -312195.45 
   99380    98.333536    163009.98    72.258003    72.258004    36.050529          120    16772.586    17600.372   -35191.927   -633.14296   -2369.3899    439.82146    72.258003    62.577267    36.050529   -272.98968   -312192.73 
   99390    99.510412    163017.01    72.259042    72.259042    36.051047          120    16949.501    17507.546   -35304.876   -849.26478   -2379.3671    631.80696    72.259042    62.578166    36.051047   -282.60962   -312194.61 
   99400    99.877863    163023.62    72.260018    72.260019    36.051534          120    17238.076    17356.017   -34932.228   -709.92331   -2499.5236    260.19575    72.260018    62.579012    36.051534   -112.71161   -312195.03 
   99410    99.919199    163030.03    72.260965    72.260966    36.052006          120    17450.819    16997.736   -34924.641   -493.03908   -1786.2484     436.7768    72.260965    62.579832    36.052006   -158.69549   -312194.87 
   99420     99.17048    163036.12    72.261865    72.261866    36.052455          120    17092.466    16656.232    -35898.48   -259.70015   -1965.3542    690.69031    72.261865    62.580612    36.052455   -716.59376   -312193.42 
   99430    99.667076    163041.08    72.262598    72.262599    36.052821          120     16787.98     16120.35    -36761.33    -312.5394   -2004.2104     855.2187    72.262598    62.581247    36.052821    -1284.333   -312194.65 
   99440    100.28405    163044.15    72.263052    72.263053    36.053047          120    16548.431    16713.599   -36633.727   -437.82498   -1970.3253    445.60802    72.263052    62.581639    36.053047   -1123.8988   -312195.87 
   99450    99.667371    163045.49     72.26325    72.263251    36.053146          120    16724.665    17144.293   -36411.467    -881.8236   -2431.4967    193.17395     72.26325    62.581811    36.053146   -847.50292    -312194.5 
   99460    98.956423    163045.48    72.263248    72.263249    36.053145          120    16982.729    17346.746   -36583.913   -792.66432   -2653.5425    627.63874    72.263248     62.58181    36.053145   -751.47949   -312193.02 
   99470    100.11652    163044.35    72.263082    72.263083    36.053062          120    17362.184    17560.754   -35972.481   -528.95477    -2875.065    592.68351    72.263082    62.581666    36.053062   -349.84761   -312194.62 
   99480    100.38265    163042.65     72.26283    72.262831    36.052937          120    17822.364    17311.772   -35437.983   -430.31466   -2683.7819    504.08235     72.26283    62.581448    36.052937   -101.28264   -312194.79 
   99490    99.775034    163040.75    72.262551    72.262551    36.052797          120    17979.051    17357.341   -35393.675    -254.9848   -2405.1366    536.98094    72.262551    62.581205    36.052797   -19.094265   -312193.41 
   99500    99.335436    163038.81    72.262263    72.262264    36.052654          120    17684.292    17625.796   -35767.079   -645.19806   -2327.7058    483.49735    72.262263    62.580956    36.052654   -152.32998   -312192.63 
   99510    99.921591    163036.61    72.261938    72.261938    36.052492          120    17154.867    17899.977   -36115.973    -986.0193   -2492.4529    192.43246    72.261938    62.580674    36.052492   -353.70943    -312193.7 
   99520    100.74038    163033.88    72.261535    72.261535    36.052291          120    17128.683    17722.248   -35862.059   -897.73096   -2859.0695    376.97082    72.261535    62.580326    36.052291   -337.04267   -312195.31 
   99530    99.557801    163030.61    72.261052    72.261053     36.05205          120    16780.794    17629.854   -35570.929   -737.54423   -2568.4395    547.44418    72.261052    62.579908     36.05205   -386.76023   -312192.89 
   99540    99.955258    163026.75    72.260481    72.260482    36.051765          120    16824.634    17618.749   -35566.495   -767.66001   -2230.9335    237.25009    72.260481    62.579413    36.051765   -374.37088   -312193.63 
   99550    99.695128    163022.28    72.259821    72.259822    36.051436          120    17186.508    17225.869   -35763.789   -584.61075   -2425.2626    161.01008    72.259821    62.578841    36.051436   -450.47065   -312192.86 
   99560    100.37867    163017.17    72.259066    72.259067    36.051059          120    17197.027    17629.164    -35439.03   -428.94144   -2579.1162    414.44542    72.259066    62.578188    36.051059   -204.27953    -312193.7 
   99570    99.961044    163011.72    72.258261    72.258262    36.050657          120    16870.966    17775.933   -35061.533   -445.12347   -2798.7608    462.81126    72.258261     62.57749    36.050657   -138.21127   -312193.13 
   99580    99.905737    163006.01    72.257418    72.257418    36.050236          120    17163.465    17561.389   -35742.088   -627.96553   -2911.6855    591.40217    72.257418     62.57676    36.050236   -339.07832    -312192.9 
   99590    100.97155    162999.88    72.256512    72.256513    36.049785          120    17640.214    17703.137   -35141.592   -620.55882   -2726.5398    349.14189    72.256512    62.575976    36.049785    67.252987   -312194.72 
   99600    100.14627    162993.84    72.255618    72.255619    36.049339          120    17773.148    17974.146       -34547    -495.0136   -3316.0752    387.67432    72.255618    62.575202    36.049339    400.09782   -312192.77 
   99610    100.91823    162988.38    72.254813    72.254813    36.048937          120    17900.471    17979.343    -34665.87   -213.46431   -3141.8552    450.15655    72.254813    62.574504    36.048937     404.6479   -312193.85 
   99620    100.44734     162983.5    72.254091    72.254091    36.048576          120    17394.054    17856.771     -35309.4   -426.13967   -2512.4228    294.88974    72.254091    62.573879    36.048576   -19.525137    -312193.4 
   99630    100.05059    162978.67    72.253378    72.253378    36.048221          120    17136.726     18247.69   -35151.563   -503.57476   -2790.4796    245.43393    72.253378    62.573261    36.048221    77.617582   -312192.56 
   99640    100.39653    162973.96    72.252682    72.252682    36.047874          120    17281.681    18612.288   -35274.379   -329.01476   -2646.9484   -102.81486    72.252682    62.572659    36.047874       206.53    -312193.1 
   99650    100.10712     162969.6    72.252037    72.252038    36.047552          120     17558.43    18801.959   -34801.807   -409.51893   -2306.0926     24.35762    72.252037      62.5721    36.047552    519.52703   -312192.45 
   99660    100.53677    162966.02    72.251508    72.251509    36.047288          120    18033.216    18335.926   -34385.288   -494.08525   -2071.5518    242.57636    72.251508    62.571642    36.047288    661.28471   -312193.03 
   99670    101.22726    162963.41    72.251123    72.251123    36.047096          120    18174.945    17725.496   -34546.518   -489.37067   -2417.7675     262.8982    72.251123    62.571308    36.047096    451.30785   -312194.21 
   99680    101.04817    162961.58    72.250852    72.250853    36.046961          120    18195.117    18016.098   -34188.732   -660.45919   -2736.8384    229.22775    72.250852    62.571074    36.046961    674.16089   -312193.66 
   99690    100.18022    162960.77    72.250731    72.250732      36.0469          120    17869.316    18631.721   -34328.762    -1270.512    -2908.064    104.81646    72.250731    62.570969      36.0469    724.09192   -312191.47 
   99700    99.926785    162961.05    72.250774    72.250774    36.046922          120    17469.189    18757.848   -34434.041   -1194.3482   -3015.3149    65.579795    72.250774    62.571006    36.046922    597.66505   -312191.03 
   99710    100.83254    162962.22    72.250946    72.250947    36.047008          120    17572.369    18149.797   -34711.042   -742.42574   -2872.9571     380.6331    72.250946    62.571156    36.047008    337.04139   -312192.05 
   99720    101.57709    162963.91    72.251196    72.251197    36.047132          120    17674.383     17741.12   -34986.037   -623.56658   -2332.4958    475.58277    72.251196    62.571372    36.047132    143.15549   -312192.86 
   99730    100.77865    162965.85    72.251482    72.251483    36.047275          120    17880.817     17657.83   -35214.205   -454.13431   -2414.8022    896.41482    72.251482    62.571619    36.047275    108.14701   -312191.13 
   99740    101.47245    162967.96    72.251794    72.251794    36.047431          120    17850.658    17664.107   -35126.558   -388.44665   -2200.6998    741.04262    72.251794    62.571889    36.047431    129.40226   -312192.05 
   99750     101.3797    162970.25    72.252133    72.252134      36.0476          120    17930.233     17416.53   -35210.166   -523.70389   -2284.0028     432.7746    72.252133    62.572183      36.0476    45.532202   -312191.46 
   99760    101.51856    162972.66    72.252489     72.25249    36.047778          120    17455.765    17851.793   -34890.781   -519.00669   -2626.1953    369.03637    72.252489    62.572492    36.047778    138.92557   -312191.61 
   99770      100.841    162975.28    72.252876    72.252877    36.047971          120    17239.934    18285.456   -34589.803   -456.08433   -2624.8369   -24.864639    72.252876    62.572827    36.047971    311.86249   -312190.43 
   99780    101.27958    162978.39    72.253336    72.253337      36.0482          120    17885.934     18569.07    -34636.95    -428.9753   -2556.0988     169.7338    72.253336    62.573226      36.0482    606.01767   -312190.95 
   99790    100.51278    162982.42    72.253932    72.253933    36.048497          120    17580.208    18709.726   -34141.255   -159.09555   -2827.7694     349.4373    72.253932    62.573741    36.048497    716.22625    -312189.5 
   99800    101.30448     162987.5    72.254683    72.254683    36.048872          120    17640.364    18376.671   -34565.475   -198.53557   -3028.9796    519.64556    72.254683    62.574391    36.048872    483.85328   -312190.66 
   99810    101.80586    162993.36    72.255548    72.255549    36.049304          120    17859.684    18218.314   -34904.334   -331.34788   -2759.0527    157.12598    72.255548    62.575141    36.049304    391.22142   -312191.59 
   99820    101.85699    162999.78    72.256497    72.256498    36.049777          120     17260.56    17939.264   -35008.336   -335.13805   -2447.3675    302.38905    72.256497    62.575963    36.049777      63.8291   -312191.82 
   99830    101.56146    163006.32    72.257463    72.257464    36.050259          120    16913.919    18000.772    -35338.59   -742.51121   -2328.3946    625.83718    72.257463    62.576799    36.050259   -141.29967   -312191.25 
   99840    102.36145    163012.66      72.2584    72.258401    36.050727          120    17543.949    17465.993   -35485.817    -756.8182   -2427.7028    648.97877      72.2584    62.577611    36.050727     -158.625   -312193.04 
   99850    100.72493    163018.76    72.259301    72.259302    36.051176          120    17330.152    17315.978   -35293.609   -464.49024    -2733.123    612.75407    72.259301    62.578391    36.051176   -215.82631   -312189.92 
   99860     101.2736    163024.52    72.260152    72.260153    36.051601          120    17498.325    17199.569   -35576.823   -270.29557   -2442.0163    513.92589    72.260152    62.579128    36.051601    -292.9762   -312191.21 
   99870    101.34988    163029.79     72.26093    72.260931    36.051989          120    17327.691    17061.556   -36033.959   -137.48193   -2641.6936    70.868057     72.26093    62.579802    36.051989   -548.23708   -312191.44 
   99880    100.95622    163034.25     72.26159     72.26159    36.052318          120    17226.904    17203.696     -35752.7   -118.59504   -2284.2585    -152.7417     72.26159    62.580373    36.052318   -440.70024   -312191.31 
   99890     101.4219    163038.07    72.262154    72.262155    36.052599          120    17504.974    17563.443   -35311.745   -504.00206   -2331.2947   -171.12587    72.262154    62.580862    36.052599   -81.109307   -312192.57 
   99900    101.23046    163041.72    72.262693    72.262693    36.052868          120     17496.97    17807.876   -35339.959   -612.14633   -3001.6262    206.46689    72.262693    62.581328    36.052868   -11.704239   -312192.37 
   99910    99.359049    163045.34    72.263228    72.263229    36.053135          120    17271.641     17904.06   -35080.278   -721.87342   -2650.9944    322.70554    72.263228    62.581792    36.053135    31.807625   -312189.37 
   99920    100.46204    163048.95    72.263762    72.263762    36.053402          120    17085.112    17555.482   -35394.358   -704.60069   -2364.8795     330.0806    72.263762    62.582254    36.053402   -251.25454   -312191.52 
   99930    101.07526    163052.19     72.26424     72.26424     36.05364          120    17139.362    17162.168   -35608.182   -156.64814   -2180.7022     385.7117     72.26424    62.582668     36.05364   -435.55048   -312193.35 
   99940    100.44025    163054.76    72.264619     72.26462    36.053829          120    16852.832    17529.511   -35961.436   -75.527952   -2387.0177    526.03582    72.264619    62.582997    36.053829   -526.36444   -312192.45 
   99950     100.8323    163056.57    72.264886    72.264887    36.053963          120    16919.421    18015.474   -35724.628   -624.17266   -2198.5658    395.89918    72.264886    62.583228    36.053963   -263.24432   -312193.23 
   99960    100.51991       163058    72.265098    72.265099    36.054068          120    17492.004    18205.034   -35046.152   -1092.5852   -1892.9546    107.48002    72.265098    62.583411    36.054068    216.96232   -312193.02 
   99970    99.801668     163059.7    72.265349     72.26535    36.054194          120    17552.266    18000.557   -34914.087   -871.69259   -2185.7686    155.61625    72.265349    62.583629    36.054194    212.91181    -312191.8 
   99980    101.13435    163061.71    72.265646    72.265647    36.054342          120    17519.878    17622.956   -35160.667   -1120.3132   -2511.6794    112.17167    72.265646    62.583886    36.054342   -5.9444021   -312194.59 
   99990    99.820413    163063.66    72.265934    72.265934    36.054485          120    17023.827    17150.737   -35767.649   -859.93609   -2953.1528    170.88675    72.265934    62.584135    36.054485   -531.02822    -312192.4 
  100000    100.31654     163064.8    72.266103    72.266104     36.05457          120    16701.635    16839.493   -35979.102   -558.72165   -3007.3577    148.97404    72.266103    62.584282     36.05457   -812.65799   -312193.63 
Loop time of 35897.3 on 1 procs for 100000 steps with 14848 atoms

Performance: 0.241 ns/day, 99.715 hours/ns, 2.786 timesteps/s
100.0% CPU use with 1 MPI tasks x no OpenMP threads

MPI task timing breakdown:
Section |  min time  |  avg time  |  max time  |%varavg| %total
---------------------------------------------------------------
Pair    | 31329      | 31329      | 31329      |   0.0 | 87.27
Bond    | 0.057076   | 0.057076   | 0.057076   |   0.0 |  0.00
Kspace  | 1443.5     | 1443.5     | 1443.5     |   0.0 |  4.02
Neigh   | 2241.2     | 2241.2     | 2241.2     |   0.0 |  6.24
Comm    | 41.358     | 41.358     | 41.358     |   0.0 |  0.12
Output  | 1.344      | 1.344      | 1.344      |   0.0 |  0.00
Modify  | 825.76     | 825.76     | 825.76     |   0.0 |  2.30
Other   |            | 15.31      |            |       |  0.04

Nlocal:    14848 ave 14848 max 14848 min
Histogram: 1 0 0 0 0 0 0 0 0 0
Nghost:    46871 ave 46871 max 46871 min
Histogram: 1 0 0 0 0 0 0 0 0 0
Neighs:    1.00929e+07 ave 1.00929e+07 max 1.00929e+07 min
Histogram: 1 0 0 0 0 0 0 0 0 0

Total # of neighbors = 10092888
Ave neighs/atom = 679.747
Ave special neighs/atom = 0
Neighbor list builds = 6736
Dangerous builds = 0
 
All done!
Total wall time: 10:04:22
