LAMMPS (16 Mar 2018)
Reading data file ...
  triclinic box = (0 0 0) to (9.208 7.97436 18.376) with tilt (-4.604 0 0)
  1 by 1 by 1 MPI processor grid
  reading atoms ...
  116 atoms
Finding 1-2 1-3 1-4 neighbors ...
  special bond factors lj:   0          0          0         
  special bond factors coul: 0          0          0         
  0 = max # of 1-2 neighbors
  0 = max # of 1-3 neighbors
  0 = max # of 1-4 neighbors
  1 = max # of special neighbors
Replicating atoms ...
  triclinic box = (0 0 0) to (73.664 63.7949 36.752) with tilt (-36.832 0 0)
  1 by 1 by 1 MPI processor grid
  14848 atoms
Finding 1-2 1-3 1-4 neighbors ...
  special bond factors lj:   0          0          0         
  special bond factors coul: 0          0          0         
  0 = max # of 1-2 neighbors
  0 = max # of 1-3 neighbors
  0 = max # of 1-4 neighbors
  1 = max # of special neighbors
  Time spent = 0.00277996 secs
PPPM initialization ...
WARNING: System is not charge neutral, net charge = -0.2048 (../kspace.cpp:302)
  using 12-bit tables for long-range coulomb (../kspace.cpp:321)
  G vector (1/distance) = 0.201681
  grid = 36 50 24
  stencil order = 5
  estimated absolute RMS force accuracy = 0.00105653
  estimated relative force accuracy = 7.33721e-05
  using double precision FFTs
  3d grid and FFT values/proc = 65395 43200
Neighbor list info ...
  update every 1 steps, delay 0 steps, check yes
  max neighbors/atom: 2000, page size: 100000
  master list distance cutoff = 15.3
  ghost atom cutoff = 15.3
  binsize = 7.65, bins = 15 9 5
  3 neighbor lists, perpetual/occasional/extra = 3 0 0
  (1) pair morse, perpetual
      attributes: half, newton on
      pair build: half/bin/newton/tri
      stencil: half/bin/3d/newton/tri
      bin: standard
  (2) pair buck, perpetual, copy from (1)
      attributes: half, newton on
      pair build: copy
      stencil: none
      bin: none
  (3) pair lj/cut/coul/long, perpetual, copy from (1)
      attributes: half, newton on
      pair build: copy
      stencil: none
      bin: none
Setting up Verlet run ...
  Unit style    : metal
  Current step  : 0
  Time step     : 0.001
Per MPI rank memory allocation (min/avg/max) = 145.7 | 145.7 | 145.7 Mbytes
Step Temp Volume Cella Cellb Cellc CellGamma Pxx Pyy Pzz Pxy Pxz Pyz Lx Ly Lz Press PotEng 
       0          225    172711.88       73.664    73.664001       36.752          120   -208834.23   -208868.61   -279851.61    19.015817     -5.72423    7.6512253       73.664    63.794896       36.752   -232518.15   -309191.56 
      10    324.38408    172621.99    73.651218    73.651219    36.745623          120   -211264.01   -211349.34   -258539.49    104.04887   -18.107929   -156.86911    73.651218    63.783827    36.745623   -227050.95   -309419.35 
      20    586.03937    172357.88    73.613637    73.613638    36.726873          120   -209259.19   -208880.71    -199435.9    27.391042   -240.62255   -341.20269    73.613637    63.751281    36.726873    -205858.6    -309973.8 
      30    581.93863    171942.55     73.55446    73.554461    36.697349          120   -184085.84   -183620.83   -119656.91   -209.95568   -788.27372   -415.83938     73.55446    63.700032    36.697349   -162454.53   -310038.27 
      40    362.71091    171425.85    73.480708    73.480708    36.660553          120   -140878.28   -140952.28   -40186.957   -546.64886   -1137.1151   -459.14161    73.480708     63.63616    36.660553   -107339.17    -309674.8 
      50    445.41237     170875.4    73.401974    73.401975    36.621272          120   -98598.239   -99056.882   -5552.2209   -651.15697   -1203.6304   -608.76461    73.401974    63.567975    36.621272   -67735.781    -309868.8 
      60     752.4233    170346.97    73.326232    73.326233    36.583483          120   -71021.475   -70925.804   -41191.623   -604.74071   -2094.9557   -448.98716    73.326232     63.50238    36.583483   -61046.301   -310497.41 
      70    936.41059    169863.44    73.256786    73.256787    36.548835          120   -52471.074   -52149.905   -103816.85   -1519.5312   -2426.3738   -414.85167    73.256786    63.442239    36.548835   -69479.277   -310921.44 
      80    793.79897    169424.11    73.193576    73.193577    36.517299          120    -41066.81   -41667.688   -149561.86   -1736.3991   -2962.2415    118.70255    73.193576    63.387497    36.517299   -77432.118   -310724.29 
      90    520.90732    169019.91    73.135323    73.135323    36.488236          120   -35012.926   -35686.351   -164620.65   -1961.2688   -3463.6323   -151.81588    73.135323    63.337048    36.488236   -78439.976    -310259.3 
     100    539.54558    168642.95    73.080912    73.080913    36.461089          120   -20206.179   -20280.702   -144765.54   -1710.7344   -3222.4674   -652.49864    73.080912    63.289927    36.461089   -61750.806   -310340.36 
     110    713.19176    168294.37    73.030526    73.030526    36.435951          120   -941.37915   -1095.7604   -101986.44   -1820.4423   -2435.4563    -764.2427    73.030526    63.246291    36.435951   -34674.528   -310726.32 
     120    713.24225     167980.8    72.985139     72.98514    36.413307          120    9814.1939    9881.2632   -50949.325   -1788.1828   -1987.2227   -1325.2063    72.985139    63.206985    36.413307   -10417.956   -310785.54 
     130    607.65681    167706.74    72.945426    72.945426    36.393493          120    8208.7947    9242.0093   -10826.195   -1775.8977   -1937.9811   -1310.4382    72.945426    63.172592    36.393493     2208.203   -310633.51 
     140    561.25564    167470.35    72.911137    72.911137    36.376386          120    3310.6895     3284.802    1589.1088   -1275.0715   -1809.3279   -1148.8807    72.911137    63.142897    36.376386    2728.2001   -310585.27 
     150    615.51008    167263.53     72.88111    72.881111    36.361405          120   -4363.7665   -3264.9131    -21662.28   -1844.0562   -1370.4938   -565.77647     72.88111    63.116893    36.361405   -9763.6532   -310731.97 
     160    676.10657    167072.21    72.853312    72.853312    36.347536          120   -14971.585   -13203.049   -58475.996   -1600.7166   -1457.3927   -465.25402    72.853312     63.09282    36.347536   -28883.543   -310901.71 
     170     654.6405    166880.84    72.825486    72.825486    36.333653          120   -19936.577   -17617.541   -88843.285   -578.87205   -2135.2327   -793.00383    72.825486    63.068721    36.333653   -42132.468   -310918.87 
     180    575.46095    166679.72    72.796218    72.796218    36.319051          120   -16440.849   -14111.218    -105619.3   -349.79357   -2341.0757   -860.89384    72.796218    63.043374    36.319051   -45390.456   -310821.35 
     190    552.08598    166467.15    72.765258    72.765258    36.303605          120     -11218.3   -9218.5118   -103062.29    263.69863   -1926.5153   -679.87932    72.765258    63.016562    36.303605   -41166.367   -310824.29 
     200    590.31247    166247.24    72.733202    72.733203    36.287612          120   -6807.2099   -5361.5868   -83245.368   -453.66182   -2084.8294   -523.42163    72.733202    62.988802    36.287612   -31804.722   -310946.32 
     210     595.5462    166027.45    72.701136    72.701136    36.271613          120   -2280.3427    -509.9244   -59025.333   -976.52546   -2123.3642   -492.39835    72.701136    62.961031    36.271613     -20605.2   -311007.34 
     220    564.87535    165815.85    72.670237    72.670238    36.256198          120     1790.413    3363.0607   -39277.971   -773.18917   -1749.0611   -1548.7075    72.670237    62.934272    36.256198   -11374.833   -310995.93 
     230    543.89786     165618.1    72.641336    72.641337    36.241779          120    2774.6656    3157.8665   -32135.098   -588.16485    -1310.038   -1875.9614    72.641336    62.909243    36.241779   -8734.1887   -310999.69 
     240    545.42559    165434.95     72.61455     72.61455    36.228415          120     867.6734     1186.185   -37375.878   -198.15145   -1981.0801    -2113.609     72.61455    62.886045    36.228415   -11774.006   -311045.56 
     250    560.02129    165263.11    72.589399      72.5894    36.215867          120   -1559.0994   -1525.2123   -51854.154   -47.571204   -1886.0533   -2275.0806    72.589399    62.864264    36.215867   -18312.822   -311119.16 
     260    553.80732    165097.38    72.565126    72.565127    36.203757          120   -1934.2664   -2933.7941   -66467.698   -190.48649   -1740.0106   -2416.8411    72.565126    62.843243    36.203757   -23778.586   -311154.14 
     270    526.76855    164933.67    72.541133    72.541133    36.191786          120   -1049.5783    -2363.289     -74518.2   -676.25185   -1578.7445   -1623.8769    72.541133    62.822465    36.191786   -25977.022   -311147.92 
     280    507.32638    164770.41    72.517191    72.517191    36.179841          120    85.754688   -634.75994   -73451.477    -638.0083    -1188.775   -419.77977    72.517191     62.80173    36.179841   -24666.827   -311153.14 
     290    508.55314    164608.62    72.493447    72.493448    36.167995          120    3179.8387    3306.1533   -63958.183   -563.27641   -1391.5305    -356.8524    72.493447    62.781167    36.167995   -19157.397    -311197.7 
     300    509.05483    164451.72    72.470407    72.470407      36.1565          120    7167.4933    7210.7063   -50387.738   -214.54459   -1615.8325   -509.69737    72.470407    62.761214      36.1565   -12003.179   -311239.57 
     310    499.02374    164303.86    72.448681    72.448681     36.14566          120    9763.9859    9321.8468   -36305.609    1.9231929   -1478.2538   -936.75714    72.448681    62.742399     36.14566   -5739.9254   -311260.01 
     320    485.80519    164167.96      72.4287    72.428701    36.135692          120    9649.1973    9427.7684   -28749.441    42.504895   -1968.1219   -1414.1264      72.4287    62.725095    36.135692   -3224.1583   -311272.75 
     330    483.22789    164044.24    72.410502    72.410503    36.126612          120    7774.3965    8175.5836   -29785.599   -44.858938   -2053.5394   -1362.7744    72.410502    62.709335    36.126612   -4611.8729   -311305.19 
     340    482.07264    163930.42    72.393751    72.393752    36.118255          120    6479.3449    7615.6856   -38949.178   -109.73488   -1564.4974   -1322.0326    72.393751    62.694828    36.118255    -8284.716   -311339.77 
     350    473.74398    163822.92    72.377922    72.377923    36.110358          120    6133.1849     6798.806   -50145.039   -165.23152   -732.02613   -1164.2876    72.377922     62.68112    36.110358   -12404.349   -311361.25 
     360    458.58883    163718.35     72.36252     72.36252    36.102673          120    6493.4975    7895.5896   -56570.304   -662.24421   -536.00129   -1763.3188     72.36252    62.667781    36.102673   -14060.406   -311367.45 
     370    446.17677    163615.18    72.347317    72.347318    36.095088          120    7570.3681    10249.362    -57020.78   -833.55795   -1741.4935   -1920.5628    72.347317    62.654615    36.095088   -13067.017   -311378.21 
     380    441.89868    163513.77    72.332366    72.332367    36.087629          120    10323.399    12493.797   -52007.329   -1048.8402   -1940.0579   -1681.5691    72.332366    62.641667    36.087629   -9730.0445    -311402.8 
     390    440.40686    163415.94    72.317938    72.317939    36.080431          120    13366.208    14618.802   -43004.586   -1350.3563   -2385.1874   -1291.5304    72.317938    62.629172    36.080431   -5006.5252   -311432.67 
     400    430.28955    163324.25     72.30441     72.30441    36.073681          120    15058.635    16395.194   -33703.635   -40.306806    -2688.395   -832.23202     72.30441    62.617456    36.073681   -749.93535   -311445.06 
     410    419.07167    163240.73    72.292083    72.292083    36.067531          120    16007.553    17763.919    -28250.03    46.330652   -2281.2245   -1395.5876    72.292083    62.606781    36.067531    1840.4806   -311453.79 
     420    417.26358    163166.08    72.281062    72.281062    36.062033          120    15945.135    17535.482   -29006.526   -352.17206   -2163.1431   -1011.6582    72.281062    62.597236    36.062033    1491.3637   -311479.78 
     430    411.96169    163099.14    72.271175    72.271175      36.0571          120     14979.96    15786.603    -33731.34   -143.52575   -1826.6952    68.366044    72.271175    62.588674      36.0571   -988.25903   -311499.23 
     440    405.22297    163037.54    72.262075    72.262076     36.05256          120    14770.826    14306.144   -40153.455    157.88929   -2164.6666    -186.4563    72.262075    62.580793     36.05256   -3692.1615    -311515.1 
     450    395.66934    162979.01    72.253428    72.253428    36.048246          120    15173.335    14203.677   -43815.038    199.12616   -1573.6682   -306.97029    72.253428    62.573304    36.048246   -4812.6753   -311525.17 
     460    388.90227    162922.53     72.24508     72.24508    36.044081          120    16756.119    16230.961   -43690.893    1198.6417   -704.74283   -573.49556     72.24508    62.566075    36.044081    -3567.938   -311538.77 
     470    384.62947    162868.54    72.237099    72.237099    36.040099          120    18813.329    17715.006   -40678.151    1430.9505   -1339.2362    236.28174    72.237099    62.559163    36.040099   -1383.2719   -311556.53 
     480    380.49593    162818.21    72.229658    72.229658    36.036387          120     19776.06    19373.706   -34771.594    1331.9703   -1105.4983    1111.7941    72.229658    62.552719    36.036387    1459.3906   -311574.46 
     490    373.83499    162772.96    72.222965    72.222966    36.033048          120     20393.88    20250.062   -30091.418    1200.8039   -1107.3307    1378.6099    72.222965    62.546923    36.033048    3517.5083   -311586.32 
     500    365.22524    162733.67    72.217153    72.217154    36.030148          120    20847.162    21431.155   -28135.531    1070.8037   -849.12452    1696.1501    72.217153     62.54189    36.030148    4714.2619   -311593.88 
     510    363.92008     162700.5    72.212246    72.212247      36.0277          120    19664.036    21843.531   -29298.989    965.41452   -1145.2425    1762.1596    72.212246     62.53764      36.0277    4069.5257   -311614.85 
     520    359.00674    162672.53    72.208109    72.208109    36.025636          120    18429.017    20693.292   -31958.971    694.38521   -1396.7771    1294.0374    72.208109    62.534057    36.025636    2387.7793   -311628.39 
     530    352.79385    162648.28     72.20452    72.204521    36.023845          120    17703.106    19872.939   -35322.863    294.62864   -1258.3368    830.26174     72.20452    62.530949    36.023845    751.06058   -311638.66 
     540    344.52998    162626.39    72.201281    72.201281    36.022229          120    17321.515    20360.774   -37778.891    527.95663   -1863.6809    501.09258    72.201281    62.528144    36.022229   -32.200668   -311644.76 
     550    339.78549    162606.16    72.198287    72.198288    36.020735          120    17636.568    21086.665   -37987.207    416.90209   -2128.9705    575.04825    72.198287    62.525551    36.020735    245.34212    -311656.3 
     560    336.17939    162587.61    72.195542    72.195542    36.019366          120    18259.103    21550.634   -36293.177   -44.086404   -2140.2368    1296.5602    72.195542    62.523174    36.019366    1172.1867    -311670.7 
     570    333.24243    162571.23    72.193117    72.193117    36.018156          120    19419.748    21977.563   -32887.536    568.34167   -2205.8387     1122.553    72.193117    62.521074    36.018156    2836.5917   -311685.29 
     580    325.69299    162557.86    72.191137    72.191138    36.017168          120    20160.548    21947.307   -30021.015    674.23204   -1745.4631    598.18587    72.191137    62.519359    36.017168    4028.9464   -311690.06 
     590     320.7769    162548.06    72.189687    72.189688    36.016445          120    20031.861      22077.8   -28584.645    749.28694    -2148.811    655.62896    72.189687    62.518104    36.016445    4508.3388   -311699.87 
     600    317.82141    162541.86     72.18877     72.18877    36.015987          120    19775.405    21559.759   -29684.112    982.49534   -1810.0379    730.83322     72.18877    62.517309    36.015987     3883.684   -311712.37 
     610    317.11635    162538.64    72.188292    72.188292    36.015749          120    20046.619    20322.441   -31739.336    592.24974   -1143.1982    395.50449    72.188292    62.516895    36.015749    2876.5745   -311729.44 
     620    310.18489    162537.56    72.188133    72.188134    36.015669          120    19941.459    20429.943   -33913.886    428.80336   -1038.9311    -320.0028    72.188133    62.516758    36.015669    2152.5052   -311733.57 
     630    305.83582    162538.01    72.188199    72.188199    36.015702          120    19819.825    20649.618   -35627.152    475.68375   -1443.6152   -759.99548    72.188199    62.516814    36.015702    1614.0971   -311742.45 
     640    302.39401    162539.55    72.188426    72.188427    36.015816          120    20444.139    20828.428   -34899.728    837.47183    -1872.162   -829.80364    72.188426    62.517012    36.015816    2124.2796   -311751.95 
     650    297.64174    162542.42    72.188852    72.188853    36.016028          120    20969.374    21584.757    -33144.51     945.6519    -1710.944   -1017.6517    72.188852    62.517381    36.016028    3136.5404   -311758.66 
     660    296.56389    162547.22    72.189562    72.189563    36.016382          120    21350.429     22757.54   -31412.519    692.10178   -1943.2953   -668.87711    72.189562    62.517995    36.016382    4231.8165   -311771.96 
     670    293.17457    162554.51    72.190641    72.190642    36.016921          120    21741.339    22198.803    -29358.35    778.54902   -1576.4351   -510.36667    72.190641     62.51893    36.016921    4860.5974    -311781.1 
     680    288.45507    162564.52    72.192124    72.192125     36.01766          120    21362.818    21316.225   -29365.969    677.99776   -1442.7604    434.33135    72.192124    62.520214     36.01766    4437.6915   -311787.24 
     690    281.45131    162576.89    72.193955    72.193956    36.018574          120    21422.083    21296.197   -31033.063    533.51465   -1295.0971    542.63434    72.193955      62.5218    36.018574    3895.0723   -311788.19 
     700    280.98866    162591.11     72.19606     72.19606    36.019624          120    21588.145    20462.375   -32215.052    809.79345   -1437.1271    351.67161     72.19606    62.523622    36.019624    3278.4895   -311801.91 
     710    279.03612    162606.68    72.198364    72.198364    36.020773          120    20915.299    20637.799   -33127.575    705.19334   -1071.8888    170.41682    72.198364    62.525618    36.020773    2808.5074   -311811.18 
     720    274.49846    162623.18    72.200806    72.200807    36.021992          120    20165.217    21314.374   -34929.076    468.54031   -576.93384   -166.29647    72.200806    62.527733    36.021992    2183.5051   -311815.42 
     730    269.54188    162640.22    72.203327    72.203328     36.02325          120    20099.781    21443.141   -35143.725    298.03296   -526.09016   -196.25144    72.203327    62.529916     36.02325    2133.0654   -311819.13 
     740    268.58244    162657.74     72.20592    72.205921    36.024544          120    20805.695    21197.679   -33390.931    111.00517   -270.19655   -403.35772     72.20592    62.532162    36.024544    2870.8144   -311829.15 
     750    265.90312    162676.16    72.208645    72.208646    36.025903          120    21202.061    20866.325   -31944.174    65.712634    -295.1905   -681.53989    72.208645    62.534522    36.025903    3374.7374   -311835.52 
     760    262.66996    162695.74    72.211543    72.211543    36.027349          120    20751.167    20457.639   -31389.997    205.63265   -647.99799   -816.08775    72.211543    62.537031    36.027349    3272.9363   -311841.26 
     770    261.32107    162716.42    72.214602    72.214603    36.028875          120    20376.349    20560.553   -31361.174    8.2644511   -871.71317   -792.03329    72.214602    62.539681    36.028875    3191.9097   -311849.82 
     780    258.65065    162738.04      72.2178      72.2178     36.03047          120    19834.506    20147.711   -32463.899    50.601154   -1278.3813   -686.62891      72.2178     62.54245     36.03047    2506.1059   -311855.22 
     790    256.55748    162760.12    72.221067    72.221067      36.0321          120    19314.676    19883.853   -33733.069    689.76418    -1483.728   -438.96603    72.221067    62.545279      36.0321      1821.82   -311862.35 
     800    255.93649    162782.23    72.224337    72.224337    36.033732          120    18685.818    19531.595    -34368.34    701.70652   -1569.1572    15.826243    72.224337    62.548111    36.033732    1283.0246   -311871.54 
     810    251.81971    162803.99    72.227555    72.227556    36.035337          120    18315.715    19098.157   -35491.406    701.68208   -652.32035   -1.1548422    72.227555    62.550898    36.035337    640.82222   -311873.77 
     820    250.04198    162825.03    72.230666    72.230666     36.03689          120    18055.094    18859.336   -35789.948    617.85914   -266.48637    420.12738    72.230666    62.553592     36.03689    374.82708   -311880.14 
     830    244.92501    162845.22    72.233651    72.233651    36.038379          120    18215.165    18656.173   -34910.893    593.26168   -270.06145    493.40052    72.233651    62.556177    36.038379    653.48168   -311880.04 
     840    242.13959    162864.78    72.236543    72.236544    36.039822          120    17997.399    19025.639    -33665.64     793.9649   -461.97833    147.61777    72.236543    62.558682    36.039822    1119.1328   -311883.25 
     850    241.66042    162884.05    72.239391    72.239392    36.041243          120    18009.703    19566.819   -33632.736    598.90747   -221.12143   -518.31886    72.239391    62.561149    36.041243    1314.5956   -311890.95 
     860    236.67178    162903.18     72.24222     72.24222    36.042654          120    18704.485    19367.295   -34190.323    692.74169    344.51057   -407.22791     72.24222    62.563598    36.042654    1293.8193   -311889.55 
     870    238.07987    162922.16    72.245025    72.245026    36.044054          120      17930.8    19470.986   -34626.156    474.65787   -134.32184   -225.57658    72.245025    62.566028    36.044054    925.21015   -311900.13 
     880    237.28531    162940.72    72.247769     72.24777    36.045423          120    16752.013    19017.735   -35873.891    486.19818   -933.60262   -386.56185    72.247769    62.568404    36.045423   -34.714329   -311906.19 
     890    234.81451    162958.33    72.250371    72.250371    36.046721          120    16406.152    18700.479   -37101.428    651.67646   -1013.2127    206.87045    72.250371    62.570657    36.046721   -664.93242   -311908.33 
     900    231.98459    162974.61    72.252777    72.252777    36.047921          120    16265.008    18942.768   -37166.049    972.46463   -1072.1914   -105.88864    72.252777    62.572741    36.047921   -652.75783   -311910.48 
     910    229.42844    162989.61    72.254995    72.254995    36.049027          120    15564.302    19068.254   -36306.175    1307.4061   -1068.3573   -456.85378    72.254995    62.574661    36.049027   -557.87326   -311912.44 
     920    227.42046     163003.5    72.257046    72.257047    36.050051          120    15481.252    18833.532   -35600.652    1320.1757   -1017.8032   -591.48954    72.257046    62.576438    36.050051    -428.6225   -311914.98 
     930     227.8667     163016.4    72.258953    72.258953    36.051002          120    15762.172    18563.889   -34947.937    1783.6457   -1378.2395   -167.45592    72.258953    62.578089    36.051002   -207.29192   -311921.73 
     940    226.54713    163028.52    72.260743    72.260743    36.051895          120    15957.532    18253.141   -34254.204    1964.0869   -1137.3125   -556.26815    72.260743    62.579639    36.051895   -14.510304   -311924.57 
     950    225.67171    163039.99    72.262438    72.262439    36.052741          120    15506.334     18316.91   -34266.514    1406.3918   -1026.7215   -259.14483    72.262438    62.581108    36.052741   -147.75666   -311928.63 
     960    225.81445    163050.82    72.264037    72.264038    36.053539          120    15446.858    18487.318   -34614.729    1607.7171   -735.11362    275.85907    72.264037    62.582492    36.053539   -226.85093   -311934.36 
     970    222.79998    163060.92     72.26553    72.265531    36.054284          120    16167.131    17937.079   -36003.161     1252.756   -988.94364   -327.46756     72.26553    62.583786    36.054284   -632.98385   -311933.39 
     980    223.73846    163070.14    72.266892    72.266893    36.054963          120    16159.822    18197.997   -36356.526    1133.3814   -1294.1183     484.0684    72.266892    62.584965    36.054963   -666.23587   -311940.14 
     990    221.72728    163078.44    72.268118    72.268119    36.055575          120    15390.886    17767.359   -36523.604    886.64423   -960.19922    612.51821    72.268118    62.586027    36.055575   -1121.7865   -311940.67 
    1000    220.54116    163085.59    72.269174    72.269175    36.056102          120     14945.23    17415.001   -36968.808    835.80248   -1179.8779    275.99082    72.269174    62.586941    36.056102   -1536.1924    -311942.2 
Loop time of 300.957 on 1 procs for 1000 steps with 14848 atoms

Performance: 0.287 ns/day, 83.599 hours/ns, 3.323 timesteps/s
100.0% CPU use with 1 MPI tasks x no OpenMP threads

MPI task timing breakdown:
Section |  min time  |  avg time  |  max time  |%varavg| %total
---------------------------------------------------------------
Pair    | 238.88     | 238.88     | 238.88     |   0.0 | 79.37
Bond    | 0.00013804 | 0.00013804 | 0.00013804 |   0.0 |  0.00
Kspace  | 10.901     | 10.901     | 10.901     |   0.0 |  3.62
Neigh   | 44.499     | 44.499     | 44.499     |   0.0 | 14.79
Comm    | 0.39124    | 0.39124    | 0.39124    |   0.0 |  0.13
Output  | 0.010567   | 0.010567   | 0.010567   |   0.0 |  0.00
Modify  | 6.1743     | 6.1743     | 6.1743     |   0.0 |  2.05
Other   |            | 0.09753    |            |       |  0.03

Nlocal:    14848 ave 14848 max 14848 min
Histogram: 1 0 0 0 0 0 0 0 0 0
Nghost:    46868 ave 46868 max 46868 min
Histogram: 1 0 0 0 0 0 0 0 0 0
Neighs:    1.00916e+07 ave 1.00916e+07 max 1.00916e+07 min
Histogram: 1 0 0 0 0 0 0 0 0 0

Total # of neighbors = 10091609
Ave neighs/atom = 679.661
Ave special neighs/atom = 0
Neighbor list builds = 161
Dangerous builds = 0
PPPM initialization ...
  using 12-bit tables for long-range coulomb (../kspace.cpp:321)
  G vector (1/distance) = 0.202619
  grid = 36 50 24
  stencil order = 5
  estimated absolute RMS force accuracy = 0.000996775
  estimated relative force accuracy = 6.92222e-05
  using double precision FFTs
  3d grid and FFT values/proc = 65395 43200
Setting up Verlet run ...
  Unit style    : metal
  Current step  : 0
  Time step     : 0.001
Per MPI rank memory allocation (min/avg/max) = 151.5 | 151.5 | 151.5 Mbytes
Step Temp Volume Cella Cellb Cellc CellGamma Pxx Pyy Pzz Pxy Pxz Pyz Lx Ly Lz Press PotEng 
       0    220.54116    163085.59    72.269174    72.269175    36.056102          120    14957.669    17427.928    -36961.94    836.16923   -1179.7937    275.96272    72.269174    62.586941    36.056102   -1525.4477   -311942.02 
      10    220.09344    163091.42    72.270035    72.270035    36.056531          120    15172.249    18215.337   -36655.201    596.54593   -1335.9414    312.75665    72.270035    62.587687    36.056531   -1089.2049   -311944.88 
      20    219.44511    163096.24    72.270747    72.270747    36.056887          120    15557.601     18269.55   -35617.551    1048.3611   -1041.7894    507.91542    72.270747    62.588303    36.056887   -596.80024   -311947.27 
      30    216.97865    163100.38    72.271359    72.271359    36.057192          120    15231.005    17857.218   -35229.993    1381.3628   -1213.7131      337.846    72.271359    62.588833    36.057192   -713.92343   -311945.58 
      40    216.37832    163103.85    72.271871    72.271871    36.057447          120    15393.393    17501.789   -35006.128    786.11261    -860.4657    298.48604    72.271871    62.589277    36.057447   -703.64872   -311947.66 
      50    217.21145    163106.65    72.272285    72.272286    36.057654          120    15358.709    17437.165   -35960.111    1118.8076   -1356.7854    475.62484    72.272285    62.589636    36.057654   -1054.7458   -311951.82 
      60    216.82172    163108.61    72.272574    72.272575    36.057798          120    15138.959    16755.707     -36772.1    943.47465   -1303.0788    180.12727    72.272574    62.589886    36.057798   -1625.8114   -311953.77 
      70    216.51585    163109.41    72.272692    72.272693    36.057857          120    14661.995    17097.141   -36880.884    737.12395   -1148.7925   -248.91305    72.272692    62.589988    36.057857   -1707.2495   -311955.25 
      80    215.48754    163109.03    72.272636    72.272637    36.057829          120    15421.765    17220.165   -37233.189    727.65542   -479.06337   -179.48295    72.272636     62.58994    36.057829   -1530.4196   -311954.68 
      90    215.76823    163107.62    72.272429    72.272429    36.057726          120    15977.412     17158.36   -36995.199    1048.7319   -908.11179   -299.47356    72.272429     62.58976    36.057726   -1286.4758    -311956.4 
     100    214.47701     163105.4      72.2721    72.272101    36.057562          120    16040.917     17465.84    -36744.62    1320.7768     -949.216   -283.89454      72.2721    62.589476    36.057562   -1079.2876   -311954.59 
     110    214.67309    163102.55    72.271679    72.271679    36.057351          120    15967.705    17411.473   -36497.571    1628.2144   -1089.9935   -119.22587    72.271679     62.58911    36.057351    -1039.464   -311955.74 
     120    214.91192     163099.1    72.271169     72.27117    36.057097          120    16107.592    16958.819   -36712.222    1123.5263    -1249.789   -591.45112    72.271169    62.588669    36.057097   -1215.2704   -311956.24 
     130     214.2493    163095.02    72.270566    72.270567    36.056796          120    16201.349    16898.274    -35778.01    782.80462   -738.84151    141.43654    72.270566    62.588147    36.056796   -892.79567   -311954.78 
     140    216.39857    163090.49    72.269898    72.269899    36.056463          120    16434.288    17414.949   -35877.297    938.63908   -1153.2993     447.0007    72.269898    62.587569    36.056463   -676.02014   -311958.58 
     150     216.6992    163085.71    72.269192    72.269192    36.056111          120    16523.839    17503.265   -35704.481    811.38726   -1439.4298   -6.4490397    72.269192    62.586956    36.056111   -559.12557   -311958.12 
     160    216.30267    163080.73    72.268456    72.268457    36.055744          120    16536.763    17519.362   -35961.956    912.53792   -1483.5395    32.189839    72.268456     62.58632    36.055744   -635.27689   -311956.62 
     170    216.15235    163075.57    72.267694    72.267694    36.055363          120    17045.482    17985.728   -36172.733    1124.4371   -1407.5143   -271.39837    72.267694    62.585659    36.055363   -380.50794   -311954.45 
     180    217.20623    163070.34    72.266921    72.266921    36.054978          120    16730.635    18080.406   -36130.294    922.77212   -745.51916   -600.58685    72.266921     62.58499    36.054978   -439.75117   -311954.29 
     190    219.86812    163065.04    72.266138    72.266139    36.054587          120    16349.473    18337.261   -36016.313    648.99459    -791.5292    361.26045    72.266138    62.584312    36.054587   -443.19313   -311957.12 
     200    219.30447    163059.69    72.265348    72.265349    36.054193          120    16342.163    18931.156   -35886.707    744.82477   -672.71115    549.95694    72.265348    62.583628    36.054193   -204.46227   -311954.16 
     210     219.7662    163054.43    72.264572    72.264572    36.053806          120    16592.072    18882.558   -35296.677     952.7506   -682.25343    161.77464    72.264572    62.582956    36.053806    59.317458   -311952.39 
     220    220.44479    163049.45    72.263836    72.263836    36.053438          120    17061.725    18947.028   -34904.651     1045.284   -822.25474   -313.30288    72.263836    62.582318    36.053438    368.03392   -311950.81 
     230    220.46348    163044.93    72.263167    72.263168    36.053105          120    17304.884    19296.557   -34691.193    1313.5463   -583.49166    -608.6182    72.263167    62.581739    36.053105    636.74943   -311948.04 
     240    224.45974    163041.01    72.262588    72.262589    36.052816          120    17447.918    19437.375   -34749.018    1744.4221   -839.42755   -804.00437    72.262588    62.581238    36.052816     712.0916   -311952.91 
     250    223.86555     163037.7    72.262099      72.2621    36.052572          120    17421.622     19262.11   -35478.846     1218.173    -1146.553   -957.29301    72.262099    62.580815    36.052572    401.62868   -311948.88 
     260    224.89057    163034.83    72.261675    72.261676    36.052361          120    17428.091    19120.338   -35389.569    919.63121   -1065.5349   -797.77452    72.261675    62.580447    36.052361    386.28654   -311947.53 
     270    223.51582    163032.33    72.261305    72.261306    36.052176          120    17840.863    18606.275   -35873.796     1030.194   -1318.2856   -609.45698    72.261305    62.580127    36.052176     191.1139   -311942.02 
     280    224.16569    163030.04    72.260968    72.260969    36.052008          120    17815.675    18115.447   -36122.344    920.40516   -1200.9486   -183.38253    72.260968    62.579835    36.052008   -63.740665   -311940.52 
     290    226.41236    163027.85    72.260644    72.260644    36.051846          120    18078.204    18591.358   -35713.431    877.52259   -1154.7142    127.53652    72.260644    62.579554    36.051846    318.71036   -311942.09 
     300    227.32833    163025.99    72.260369    72.260369    36.051709          120    18445.254     19369.66   -34710.244    1165.4248   -957.46571    883.11709    72.260369    62.579316    36.051709    1034.8899   -311940.84 
     310    226.92788    163024.87    72.260203    72.260204    36.051626          120    17924.628    19771.588   -33428.936    1058.2619   -1089.7606     855.4721    72.260203    62.579173    36.051626    1422.4268   -311937.32 
     320    229.51079    163024.72    72.260181    72.260182    36.051615          120    17826.388    19303.802   -33486.336    708.54584   -938.21607    750.47956    72.260181    62.579153    36.051615     1214.618   -311939.83 
     330    231.72724    163025.38    72.260279     72.26028    36.051664          120    17544.397    19062.221   -34766.113      788.997   -221.60549    143.75538    72.260279    62.579238    36.051664    613.50184   -311941.27 
     340    233.56081    163026.45    72.260437    72.260437    36.051743          120    17045.659    19115.897   -35201.791    1052.7945   -590.11842   -315.08213    72.260437    62.579374    36.051743    319.92162   -311942.29 
     350    231.65571    163027.71    72.260624    72.260624    36.051836          120    16610.601    19282.245   -34641.378    1356.3466   -954.28675   -333.97325    72.260624    62.579536    36.051836    417.15619   -311936.82 
     360    233.05265    163029.19    72.260843    72.260843    36.051945          120    16672.567    19438.354   -35243.587     1596.483   -1041.2678   -520.04176    72.260843    62.579726    36.051945    289.11148   -311938.11 
     370    231.12235    163030.86    72.261089     72.26109    36.052068          120    17249.983    19929.569   -34756.149    1628.6883   -769.22195   -373.41904    72.261089     62.57994    36.052068    807.80083   -311933.23 
     380    235.13666       163033    72.261405    72.261405    36.052226          120    17469.713    19940.554   -34172.656     1241.851   -747.05075   -302.40315    72.261405    62.580213    36.052226    1079.2035   -311939.88 
     390    233.11389    163035.78    72.261815    72.261816     36.05243          120    17692.497    19568.688   -33823.586    746.57533   -973.82892    29.414093    72.261815    62.580568     36.05243    1145.8665   -311935.05 
     400    231.37632    163039.22    72.262323    72.262324    36.052684          120    18047.623    19409.814   -34063.376    926.98676   -501.23399    771.16179    72.262323    62.581008    36.052684    1131.3536   -311931.02 
     410    233.94371    163043.27    72.262923    72.262923    36.052983          120    17425.409    19738.822   -34009.281    1315.4689   -321.04071    1133.9602    72.262923    62.581528    36.052983    1051.6499    -311936.2 
     420    230.71808    163047.89    72.263605    72.263605    36.053323          120    17087.636     20156.41   -34227.037    1565.9584    -574.4676    801.44861    72.263605    62.582118    36.053323    1005.6697   -311930.37 
     430    232.91575       163053    72.264359     72.26436      36.0537          120    16863.254    19848.563   -34047.266    1562.5513   -1228.8164    1029.2893    72.264359    62.582772      36.0537    888.18374   -311935.69 
     440    232.61835    163058.51    72.265173    72.265174    36.054106          120    16888.125    19623.747   -34510.612    932.67517   -1801.9854    472.26237    72.265173    62.583476    36.054106    667.08684   -311936.11 
     450    233.13453    163064.26    72.266024    72.266024     36.05453          120    16928.363    19682.385   -35066.115    811.88464   -1604.8594   -55.562868    72.266024    62.584213     36.05453    514.87772   -311938.01 
     460    232.12806     163070.2      72.2669    72.266901    36.054967          120    17474.695    19912.194   -34696.158    847.61847   -1279.1767    149.59128      72.2669    62.584972    36.054967    896.91042   -311937.65 
     470    231.64763    163076.49    72.267829     72.26783    36.055431          120    17050.687    19982.155   -34354.158    1373.5291   -1165.6036    431.66508    72.267829    62.585777    36.055431    892.89468   -311938.11 
     480    231.38057    163083.12     72.26881     72.26881     36.05592          120    16727.735     18912.49   -34440.651    1393.5038   -847.60405    439.66199     72.26881    62.586626     36.05592    399.85819   -311939.59 
     490    231.72103    163089.81    72.269798    72.269799    36.056413          120    17054.161    18597.813   -34895.083    1123.6752   -1534.3716   -106.23237    72.269798    62.587482    36.056413    252.29709   -311941.68 
     500    229.72447    163096.45    72.270778    72.270779    36.056902          120    17543.595    19066.221   -34838.591    556.18781   -852.62818     269.7563    72.270778     62.58833    36.056902    590.40816   -311940.86 
     510    229.79558    163103.22    72.271778    72.271779    36.057401          120    17849.583    19205.149   -34762.786    230.29608   -402.83594    618.15633    72.271778    62.589197    36.057401    763.98199   -311943.39 
     520    228.37162    163110.27     72.27282     72.27282    36.057921          120    18446.329    19453.559   -35076.307    48.367583   -1493.4489    483.80963     72.27282    62.590099    36.057921    941.19374   -311943.56 
     530    227.33241    163117.69    72.273915    72.273915    36.058467          120    18439.578     19565.52   -35254.264    723.25034   -1450.1263   -72.418166    72.273915    62.591047    36.058467    916.94448    -311944.8 
     540    229.50798    163125.39    72.275053    72.275053    36.059035          120    17273.506    19348.587   -35722.981    753.43475   -1755.9257   -195.58223    72.275053    62.592032    36.059035    299.70387   -311951.82 
     550    225.41043    163133.09     72.27619     72.27619    36.059602          120    17119.775    19438.796   -35413.646    983.04989   -1529.5673   -450.81905     72.27619    62.593017    36.059602    381.64164    -311946.3 
     560    226.70612    163140.74     72.27732     72.27732    36.060166          120    16837.313     19144.77   -35466.885    738.92817   -1127.2895   -118.64442     72.27732    62.593996    36.060166    171.73286   -311951.76 
     570    223.44678    163148.27    72.278431    72.278432     36.06072          120    17040.697    19369.051   -35020.849    654.58199   -766.44263    350.29506    72.278431    62.594958     36.06072    462.96646   -311948.53 
     580    224.79632    163155.81    72.279545    72.279546    36.061276          120    16875.876    19312.432   -34853.397    877.89669   -783.86604    459.41055    72.279545    62.595923    36.061276    444.97008    -311954.2 
     590    224.01761    163163.35    72.280659    72.280659    36.061832          120    16243.767    19529.385   -35507.098    1083.1023   -589.95396     543.5017    72.280659    62.596887    36.061832    88.684699   -311955.39 
     600    223.72433     163170.7    72.281743    72.281744    36.062373          120     16052.24    19518.143   -35626.878     1366.274   -421.33642    565.74177    72.281743    62.597826    36.062373    -18.83171   -311957.37 
     610    222.35715    163177.75    72.282784    72.282785    36.062892          120    16385.054    18974.077   -36378.952    1341.5326   -599.45237    441.95409    72.282784    62.598728    36.062892   -339.94063   -311957.56 
     620    220.61052     163184.3    72.283752    72.283752    36.063375          120    16268.818    18149.651    -37081.05    1546.5513   -963.64468    80.189001    72.283752    62.599566    36.063375   -887.52729    -311956.8 
     630    221.63663    163190.04    72.284599      72.2846    36.063798          120    15936.307    17828.961   -37058.155    1497.6085   -1677.5947   -112.43889    72.284599      62.6003    36.063798   -1097.6291      -311961 
     640    222.84513    163194.84    72.285308    72.285309    36.064151          120    15375.482    17858.223   -36765.654    1077.2683   -1843.1459   -315.80636    72.285308    62.600914    36.064151   -1177.3165   -311965.85 
     650    220.98906    163198.72    72.285881    72.285881    36.064437          120    15933.093    18133.465   -36116.511    790.11342   -870.98184    -347.8146    72.285881     62.60141    36.064437   -683.31747   -311963.93 
     660    219.98418    163201.98    72.286363    72.286363    36.064677          120    16699.256     18016.29   -35514.386    434.97831   -1176.2957    31.686322    72.286363    62.601827    36.064677   -266.28001   -311964.09 
     670    218.58606    163204.93    72.286797    72.286798    36.064894          120    16755.258     17874.68    -35149.56    563.29514    -1260.369    463.81987    72.286797    62.602204    36.064894   -173.20741   -311962.97 
     680    219.03101    163207.66      72.2872    72.287201    36.065095          120    16445.825    18827.055    -35251.23    609.17171   -1266.4085    741.82583      72.2872    62.602553    36.065095    7.2168691   -311965.56 
     690    221.41294    163210.26    72.287585    72.287586    36.065287          120    16490.586     18916.81   -36084.649    720.75467    -1174.332    777.33017    72.287585    62.602886    36.065287   -225.75107   -311971.27 
     700    218.22835    163212.65    72.287937    72.287937    36.065463          120    16830.905    18582.929   -36548.814    1138.1787   -905.71952    378.79411    72.287937     62.60319    36.065463   -378.32665   -311965.98 
     710    216.98824     163214.7     72.28824    72.288241    36.065614          120     16796.45    18919.692   -36635.941     560.1401   -1015.8679    541.97474     72.28824    62.603453    36.065614   -306.59954   -311964.62 
     720    217.65059    163216.47    72.288501    72.288501    36.065744          120    16715.815    18820.386   -36318.792    549.78763   -1237.8116    636.84888    72.288501    62.603679    36.065744   -260.86334    -311966.2 
     730    218.88787    163217.99    72.288725    72.288726    36.065856          120    16033.734     18884.86   -35844.228    657.71481   -1379.0261    552.64285    72.288725    62.603873    36.065856   -308.54458    -311968.9 
     740    217.09806    163219.24     72.28891    72.288911    36.065949          120    16049.774    18796.176   -36392.023    278.97437   -1533.2581    396.13772     72.28891    62.604033    36.065949   -515.35764   -311965.34 
     750     219.4576    163220.09    72.289036    72.289037    36.066011          120    15687.505    18412.338    -36281.58    441.13631   -1362.1823    98.936071    72.289036    62.604143    36.066011   -727.24574   -311969.41 
     760    219.62153    163220.45     72.28909     72.28909    36.066038          120    15877.695    18560.171   -35890.127    374.50555    -1613.707    389.73153     72.28909    62.604189    36.066038   -484.08685   -311969.35 
     770    219.10435    163220.44    72.289087    72.289088    36.066037          120    15711.215     18481.18   -36418.587    16.090964   -1344.8523    399.62292    72.289087    62.604187    36.066037   -742.06428   -311967.85 
     780    218.88652    163219.95    72.289016    72.289016    36.066001          120    15905.908    18471.046    -36376.55    611.27529   -1755.3094    289.91091    72.289016    62.604125    36.066001   -666.53193   -311966.23 
     790    221.56774    163219.02    72.288878    72.288879    36.065932          120     16149.36    18329.607   -36312.782    975.49812   -1265.3962    -219.3548    72.288878    62.604005    36.065932   -611.27178    -311970.3 
     800    220.23023    163217.69    72.288682    72.288682    36.065835          120     16085.76    18148.149   -36282.552    614.69744     -1071.65   -35.122097    72.288682    62.603836    36.065835   -682.88105   -311966.58 
     810    219.60849    163215.94    72.288423    72.288424    36.065706          120    15509.941    18365.895    -35937.92    935.39011   -1171.6656   -66.930002    72.288423    62.603612    36.065706   -687.36138   -311963.81 
     820    221.86711     163213.8    72.288107    72.288107    36.065548          120    16254.292    18417.756   -35989.476    1108.3694    -808.5332    198.10177    72.288107    62.603337    36.065548   -439.14279    -311966.3 
     830    221.56971     163211.4    72.287753    72.287754    36.065371          120    16688.583    18410.844   -36333.012    564.56565   -782.50955    586.82862    72.287753    62.603031    36.065371    -411.1952   -311964.44 
     840    222.69562    163208.82    72.287371    72.287372    36.065181          120    16764.518     18253.59   -35963.916    897.98271    -1170.374    486.89274    72.287371    62.602701    36.065181   -315.26934   -311964.24 
     850    220.46665    163206.08    72.286968    72.286968    36.064979          120    17030.777    17216.808   -35638.781    907.55375   -1006.5384    192.71675    72.286968    62.602351    36.064979   -463.73209   -311958.09 
     860     223.5313     163203.1    72.286528    72.286529     36.06476          120    16492.271      16742.9   -35590.331     507.0379   -1321.2308     414.0855    72.286528     62.60197     36.06476   -785.05333   -311962.03 
     870     222.7795    163199.71    72.286027    72.286028     36.06451          120    16625.411    16946.887   -35811.208    677.14952   -1550.7673    942.43192    72.286027    62.601537     36.06451   -746.30365   -311958.18 
     880    225.46897    163195.92    72.285468    72.285468    36.064231          120    17142.958    17249.616    -36295.18     431.7999   -1160.5037    403.97553    72.285468    62.601052    36.064231   -634.20202   -311961.02 
     890    225.40004    163191.82    72.284861    72.284862    36.063928          120    16514.111    17525.695   -35922.575    67.005537   -1228.4088    79.685475    72.284861    62.600527    36.063928   -627.58944   -311958.94 
     900    224.30656    163187.43    72.284214    72.284214    36.063605          120     16101.31    18211.204   -35516.121    320.93198   -1277.3289    331.81041    72.284214    62.599966    36.063605   -401.20218   -311954.78 
     910    225.48098    163182.91    72.283547    72.283548    36.063273          120    16710.381    18695.982   -35954.156     892.8618   -1530.6281    472.32079    72.283547    62.599389    36.063273   -182.59763   -311955.24 
     920    226.70619    163178.38    72.282878    72.282879    36.062939          120    16313.618    18904.158   -36738.934    650.48766   -1398.5941    772.04644    72.282878     62.59881    36.062939   -507.05268   -311955.45 
     930    227.10595    163173.68    72.282184    72.282184    36.062593          120    15862.067    18859.642   -36124.707    469.78724    -1695.003     1205.415    72.282184    62.598208    36.062593   -467.66594   -311954.28 
     940    227.41777    163168.82    72.281466    72.281467    36.062235          120    16252.347    19053.293   -35581.638    390.70385   -1940.5166    1134.9478    72.281466    62.597587    36.062235    -91.99895   -311952.53 
     950     226.6451    163164.06    72.280763    72.280764    36.061884          120    16685.117    19668.883   -35348.737    418.38344   -1320.6856    770.57289    72.280763    62.596978    36.061884    335.08764   -311949.16 
     960    228.31546    163159.65    72.280112    72.280112    36.061559          120    16423.543    20082.596   -35493.575    432.43988   -1270.9609    459.56983    72.280112    62.596413    36.061559    337.52128   -311950.61 
     970    228.27191    163155.62    72.279518    72.279518    36.061262          120     17164.07    20151.184   -35352.417    906.26598   -495.55981   -218.47593    72.279518    62.595899    36.061262    654.27924   -311948.89 
     980    229.64156    163152.18    72.279008    72.279009    36.061008          120    17699.148     20181.35   -34930.446    868.05599   -327.71744   -923.44609    72.279008    62.595458    36.061008    983.35063    -311949.9 
     990    230.26751    163149.51    72.278614    72.278615    36.060812          120     18303.17    20063.379   -34736.015    755.55765    -132.7751   -482.44634    72.278614    62.595117    36.060812    1210.1781      -311950 
    1000    228.55036    163147.69    72.278345    72.278346    36.060678          120    17739.664    19580.514   -34923.838    651.19803   -726.93787   -514.38602    72.278345    62.594884    36.060678    798.77993   -311945.33 
    1010    229.28931    163146.49    72.278168    72.278169    36.060589          120    17414.815    19317.455   -34923.097    741.84732   -1692.9037   -564.54495    72.278168    62.594731    36.060589    603.05767   -311945.98 
    1020    230.94403    163145.76    72.278061    72.278061    36.060535          120     17708.84    19119.433   -34604.568    819.82395   -1556.9103   -24.559017    72.278061    62.594637    36.060535    741.23481   -311948.04 
    1030    230.81263    163145.57    72.278033    72.278034    36.060522          120    18006.691     19589.09   -34461.166     574.7756   -1900.9684    159.87346    72.278033    62.594613    36.060522    1044.8718   -311947.24 
    1040    233.44762    163146.09    72.278109     72.27811     36.06056          120    18197.584    19119.373   -34689.575    281.15654   -1488.1918    957.88649    72.278109    62.594679     36.06056    875.79398   -311951.84 
    1050    232.96277    163147.16    72.278267    72.278267    36.060638          120    17722.296    18205.537   -35142.081    397.38734    -1075.962    1582.3698    72.278267    62.594816    36.060638    261.91755   -311950.41 
    1060    231.57419     163148.4    72.278451    72.278452     36.06073          120    17679.339    18303.715   -35332.538    772.90184   -1400.4303    512.25697    72.278451    62.594975     36.06073    216.83892   -311948.34 
    1070    230.62847    163149.75    72.278651    72.278651     36.06083          120    17202.566     18844.23   -35684.145    778.50461   -1032.7184    342.55569    72.278651    62.595148     36.06083    120.88362   -311947.21 
    1080    232.52576    163151.14    72.278856    72.278856    36.060932          120    16779.514    18936.446   -35682.266    716.96519   -859.93837    409.83179    72.278856    62.595326    36.060932    11.231161   -311951.72 
    1090    232.35208    163152.52    72.279058    72.279059    36.061033          120    16704.635    18973.034   -34975.232    313.68265    -984.5023    422.02953    72.279058    62.595501    36.061033     234.1455   -311952.28 
    1100    232.11465    163154.01    72.279278    72.279279    36.061143          120    16919.072    18916.801   -34619.977    156.69414   -885.98754    110.14452    72.279278    62.595692    36.061143    405.29869   -311953.34 
    1110    231.94864    163155.71     72.27953     72.27953    36.061268          120    17096.153    18393.089   -34861.391    311.72802   -785.56106   -33.909162     72.27953    62.595909    36.061268    209.28343   -311954.92 
    1120    228.73697    163157.51    72.279796    72.279796    36.061401          120    16495.048     18387.92   -34585.575    800.94987   -1638.6462    99.118205    72.279796     62.59614    36.061401     99.13119   -311950.57 
    1130    229.46975    163159.33    72.280065    72.280066    36.061535          120    16649.676    18796.129   -35201.767     1225.431   -1492.4008    176.76976    72.280065    62.596373    36.061535    81.346038   -311953.84 
    1140    230.64653    163161.14    72.280333    72.280333    36.061669          120    16089.493    18856.788   -35441.823    962.31178   -1327.2545    30.783581    72.280333    62.596605    36.061669   -165.18061   -311958.19 
    1150    227.51863    163162.78    72.280574    72.280574    36.061789          120        15281    18481.965   -35746.348    1278.6574   -963.91312    95.199109    72.280574    62.596814    36.061789    -661.1276   -311954.32 
    1160    226.51527    163163.94    72.280746    72.280746    36.061875          120    15756.602    18222.439   -35769.808    1340.1746   -909.20165    390.81076    72.280746    62.596963    36.061875   -596.92236   -311954.76 
    1170    225.71586    163164.66    72.280852    72.280852    36.061928          120    16071.479    18494.123   -35879.549    710.15012   -857.92121    443.15641    72.280852    62.597054    36.061928   -437.98235   -311955.98 
    1180    226.39696    163165.07    72.280912    72.280912    36.061958          120    16731.365    19108.242   -35792.416    733.66564   -177.87792    557.32187    72.280912    62.597106    36.061958    15.730184   -311959.62 
    1190    227.80884    163165.48    72.280973    72.280973    36.061988          120    17543.311    19179.038   -34712.658    1223.3078   -432.80527    624.88851    72.280973    62.597159    36.061988    669.89713   -311965.18 
    1200    225.37366     163166.3    72.281093    72.281094    36.062049          120    17518.208    19197.315   -34397.274    1272.9583   -1101.2227    270.52528    72.281093    62.597264    36.062049    772.74969   -311962.84 
    1210    223.12044    163167.63    72.281291    72.281292    36.062147          120    17818.167     19182.76   -33827.138    1474.4719   -830.75716    343.85731    72.281291    62.597435    36.062147    1057.9298   -311961.39 
    1220    224.48332    163169.59     72.28158     72.28158    36.062291          120    18058.483    18311.244   -34342.173    1262.9726   -954.27887    293.54354     72.28158    62.597685    36.062291    675.85124   -311966.51 
    1230    222.24128    163171.98    72.281933    72.281933    36.062467          120    17479.497    18710.835   -34249.236    1108.0277   -500.01444     330.6582    72.281933    62.597991    36.062467    647.03231   -311964.53 
    1240    222.08134    163174.74     72.28234     72.28234     36.06267          120    17630.774    19306.499    -35177.72    338.70313   -704.61571    381.39308     72.28234    62.598343     36.06267    586.51758   -311965.95 
    1250    221.66028    163177.86    72.282801    72.282802    36.062901          120    18851.222    19880.492   -35350.662    350.45344   -1224.7528    7.6791034    72.282801    62.598743    36.062901    1127.0174   -311966.72 
    1260    222.45305    163181.63    72.283357    72.283357    36.063178          120    18308.451    20039.921   -35290.394    615.96432   -1261.3785    341.92429    72.283357    62.599224    36.063178     1019.326   -311970.32 
    1270    222.03015    163185.95    72.283995    72.283996    36.063496          120    16921.763     19794.05   -35531.461    961.59952   -860.68808   -190.63745    72.283995    62.599777    36.063496    394.78379   -311971.22 
    1280    222.54414    163190.45    72.284659     72.28466    36.063828          120     16559.18    19436.025   -35270.836    1350.3998   -656.58495    94.489249    72.284659    62.600352    36.063828    241.45638   -311973.22 
    1290    220.80264       163195    72.285331    72.285332    36.064163          120    16879.107    19714.022    -35311.15    1302.9831    -731.4521     63.50596    72.285331    62.600934    36.064163    427.32645   -311971.49 
    1300    222.25601    163199.73     72.28603    72.286031    36.064511          120    17372.787    19599.843   -34555.433    1084.4131   -815.79355   -308.65746     72.28603    62.601539    36.064511    805.73195   -311975.79 
    1310    219.86827    163204.83    72.286782    72.286783    36.064887          120    17360.211    18735.887   -34633.769     738.9476   -995.51338   -159.66994    72.286782     62.60219    36.064887    487.44314   -311972.66 
    1320    219.62682    163210.12    72.287565    72.287565    36.065277          120    16838.197    18915.803   -34887.749    822.76846   -1166.0318    14.247139    72.287565    62.602868    36.065277     288.7502    -311973.1 
    1330    220.08321    163215.45    72.288351    72.288351    36.065669          120    16441.551    18854.361   -35850.118    521.56377   -960.54055    -207.0652    72.288351    62.603549    36.065669   -184.73532   -311974.63 
    1340    217.78497    163220.51    72.289097    72.289098    36.066042          120     15714.31    18916.564   -35976.369    371.48621   -1056.6985   -376.97999    72.289097    62.604195    36.066042    -448.4985   -311970.63 
    1350    219.40204    163225.11    72.289777    72.289777    36.066381          120    15754.584    18813.216   -36238.649    482.53231   -1231.3667    77.011592    72.289777    62.604784    36.066381   -556.94974   -311974.46 
    1360    218.96948    163229.23    72.290385    72.290385    36.066684          120    16990.169    18882.944   -36287.107    814.64318   -849.09555    363.09089    72.290385     62.60531    36.066684   -137.99772   -311974.23 
    1370    218.36712    163233.14    72.290962    72.290963    36.066972          120    18418.204    18667.912   -35628.795    961.19839   -537.44212     582.3299    72.290962    62.605811    36.066972    485.77382   -311972.93 
    1380    220.21021    163237.25     72.29157     72.29157    36.067275          120    17806.443    19091.642   -34926.957    1085.6598   -590.88301    508.23982     72.29157    62.606337    36.067275    657.04263   -311976.61 
    1390    218.41768    163241.68    72.292223    72.292223    36.067601          120     17258.57     18993.22   -34949.884    1212.6379   -594.94547    211.45766    72.292223    62.606902    36.067601    433.96857   -311972.64 
    1400    219.24118    163246.24    72.292897    72.292897    36.067937          120    16858.564    18920.328   -36028.884    1008.3113   -700.33916    627.67572    72.292897    62.607486    36.067937   -83.330757    -311973.8 
    1410    220.93458    163250.64    72.293546    72.293547    36.068261          120    16529.187    19143.176   -36392.468    1163.6285   -755.75364    729.91673    72.293546    62.608048    36.068261    -240.0351   -311975.94 
    1420     220.4039    163254.79    72.294159    72.294159    36.068567          120    17726.148    18981.167   -36292.015    1401.9078   -1292.1388    727.10755    72.294159    62.608579    36.068567    138.43323   -311973.69 
    1430    221.02529     163258.9    72.294765    72.294766     36.06887          120    17729.598    18898.011   -36194.133    1131.8809   -1967.4666    439.05079    72.294765    62.609104     36.06887    144.49187   -311974.01 
    1440     220.4442    163262.95    72.295362    72.295363    36.069168          120    16822.423     18632.08   -36708.426    1314.6067    -1890.168   -367.84059    72.295362    62.609621    36.069168   -417.97444   -311971.58 
    1450    221.59282    163266.64    72.295907    72.295907    36.069439          120    16294.115    18931.052   -36821.113    1136.6417   -1536.0455   -63.265723    72.295907    62.610093    36.069439    -531.9823   -311971.96 
    1460    223.03151    163269.89    72.296388    72.296388    36.069679          120     16202.24    19347.155   -36432.141    734.22812   -1964.4372    116.17565    72.296388    62.610509    36.069679   -294.24853   -311973.05 
    1470    219.97907     163272.9    72.296831    72.296831      36.0699          120    16931.207    19489.882   -35114.364    820.10172   -1828.4385    316.99235    72.296831    62.610893      36.0699    435.57529   -311964.92 
    1480    223.17413    163276.07      72.2973      72.2973    36.070134          120    17207.431    19593.614   -34915.006    769.04837   -1042.6637    513.07236      72.2973    62.611299    36.070134       628.68   -311969.24 
    1490     226.0365    163279.58    72.297817    72.297818    36.070392          120    17153.018    19239.341   -35120.946    832.77362   -1086.7039    649.57508    72.297817    62.611747    36.070392    423.80449   -311973.46 
    1500    223.83178    163283.27    72.298362    72.298362    36.070664          120    16775.154    18704.154   -34994.897    1151.1388   -1408.8459     640.5297    72.298362    62.612219    36.070664    161.47041   -311966.74 
    1510    225.23501    163286.96    72.298907    72.298907    36.070936          120    16381.847    18571.707   -35362.169    1426.7459   -1503.8006     752.2708    72.298907     62.61269    36.070936   -136.20496   -311967.91 
    1520    225.98084    163290.47    72.299425    72.299425    36.071194          120     16304.06    18736.931   -35705.365    1143.2773    -1031.806    269.86497    72.299425    62.613139    36.071194   -221.45818   -311967.02 
    1530     225.7576    163293.75    72.299909     72.29991    36.071436          120    16356.435    18948.474   -35356.142    1379.3149   -815.21095    5.4999268    72.299909    62.613559    36.071436   -17.077422   -311964.33 
    1540    226.63304    163296.87    72.300369     72.30037    36.071665          120    15926.684    17934.728   -35676.557    1700.8118   -615.67496    606.75913    72.300369    62.613957    36.071665   -605.04851   -311964.19 
    1550    226.93047    163299.49    72.300756    72.300757    36.071859          120    15453.141    17595.919   -35781.739    1455.0069   -1055.8417    503.71182    72.300756    62.614292    36.071859   -910.89319   -311962.94 
    1560    225.74764    163301.47    72.301048    72.301049    36.072004          120    15789.994    18184.712   -35538.861    1406.9086   -1763.5343    328.93264    72.301048    62.614545    36.072004   -521.38474   -311958.66 
    1570    226.21096       163303    72.301273    72.301274    36.072117          120    15469.569     18128.74   -35650.282    1254.0179   -2300.1144    636.22391    72.301273     62.61474    36.072117   -683.99093   -311957.86 
    1580    228.41021    163304.05    72.301429    72.301429    36.072194          120    16174.853    17669.184   -35214.715    657.99304    -1319.487    396.17795    72.301429    62.614875    36.072194   -456.89282   -311960.53 
    1590     224.3396    163304.78    72.301537    72.301537    36.072248          120    16760.079    18816.582   -35565.417    653.53433   -1234.9914    23.194971    72.301537    62.614968    36.072248     3.747809   -311951.22 
    1600    228.57769     163305.5    72.301643    72.301644    36.072301          120    16964.568    19395.692   -34719.496    371.41287   -1437.1449    2.7172021    72.301643     62.61506    36.072301    546.92101   -311957.76 
    1610    231.03617    163306.53    72.301795    72.301796    36.072377          120    17015.012    19133.286   -35235.974    491.14128   -1214.3091   -595.51799    72.301795    62.615192    36.072377    304.10798   -311961.63 
    1620    230.34441    163307.73    72.301972    72.301972    36.072465          120    16298.903     18702.76   -35881.593    758.21294   -1257.4389   -225.74618    72.301972    62.615345    36.072465   -293.30985   -311959.16 
    1630    229.87713    163308.74    72.302121    72.302122     36.07254          120    16489.246    18875.516   -35929.765    369.91511   -1331.1462    153.97744    72.302121    62.615474     36.07254   -188.33429   -311957.48 
    1640    229.29481     163309.6    72.302247    72.302248    36.072603          120    16995.458    19328.324   -36244.551    471.53282   -960.30335    756.58603    72.302247    62.615584    36.072603     26.41023    -311955.3 
    1650    230.06808    163310.45    72.302373    72.302373    36.072665          120    16952.262    19975.037   -36066.691    798.25577   -1033.7253    1034.5485    72.302373    62.615692    36.072665     286.8693   -311956.58 
    1660    230.14596    163311.43    72.302518    72.302518    36.072737          120    16707.916    19805.028   -36006.734    900.72711   -1394.0035    1240.8106    72.302518    62.615818    36.072737     168.7367   -311955.36 
    1670    230.12837     163312.5    72.302675    72.302676    36.072816          120    17371.189    18969.188   -36181.152    780.10594   -1769.1601    934.64058    72.302675    62.615954    36.072816    53.074901   -311955.36 
    1680    229.90491     163313.6    72.302838    72.302839    36.072897          120    17791.512    18975.313   -35971.048     1056.357   -1299.0957    578.32855    72.302838    62.616095    36.072897    265.25905   -311955.18 
    1690    229.67815    163314.83     72.30302    72.303021    36.072988          120    17485.849    18625.806   -35921.025    653.05511   -1140.0367    842.87095     72.30302    62.616253    36.072988    63.543259   -311954.99 
    1700    230.88329    163316.09    72.303206    72.303207    36.073081          120    17249.875    18493.757    -35502.73    486.86959    -1241.831    16.870007    72.303206    62.616414    36.073081    80.300645   -311957.76 
    1710    230.23355    163317.37    72.303395    72.303396    36.073175          120    16547.784    18972.026   -35314.445     418.1852   -1919.3338   -784.61089    72.303395    62.616578    36.073175    68.455048   -311957.42 
    1720    230.14888    163318.67    72.303586    72.303587     36.07327          120    16475.141    19384.753   -35850.257    518.54036   -1411.7091   -564.41428    72.303586    62.616743     36.07327    3.2121765   -311958.17 
    1730    231.08065    163319.93    72.303772    72.303772    36.073363          120    16185.979    19019.931   -35828.703    748.25778   -1145.2709    186.96167    72.303772    62.616904    36.073363   -207.59792   -311961.17 
    1740    230.59926       163321     72.30393     72.30393    36.073442          120    15849.904     18199.78   -36010.095    1126.6841   -1051.2393   -52.221981     72.30393    62.617041    36.073442   -653.47045   -311961.36 
    1750    229.76324     163321.6    72.304019     72.30402    36.073487          120    15061.935    18396.884   -36916.879    1418.0409   -983.02974   -19.441205    72.304019    62.617118    36.073487   -1152.6865   -311961.19 
    1760    230.55876    163321.41     72.30399    72.303991    36.073472          120    14813.892     17783.44    -37377.08    1924.0325   -1444.3252    574.80328     72.30399    62.617093    36.073472   -1593.2494    -311964.3 
    1770    228.38628    163320.18    72.303809     72.30381    36.073382          120    15413.702    17805.918   -36488.449    2610.9735    -1639.298    574.05684    72.303809    62.616936    36.073382   -1089.6095   -311961.59 
    1780    226.88196    163318.25    72.303524    72.303524    36.073239          120     16299.11    18439.179   -36135.548    1974.5949   -1735.4883    938.90553    72.303524    62.616689    36.073239   -465.75327   -311960.61 
    1790    227.61648    163316.06    72.303201    72.303202    36.073078          120    16614.544    19157.806   -34823.317    1407.3685   -1436.7595    1090.3775    72.303201     62.61641    36.073078    316.34414   -311963.71 
    1800    227.62109    163314.07    72.302908    72.302908    36.072932          120    16666.999    18710.853   -35265.216    1524.0601   -1501.0791    778.58131    72.302908    62.616156    36.072932    37.545664   -311965.88 
    1810    226.04461    163312.18    72.302628    72.302629    36.072792          120    16247.322     18472.16   -35673.351    1669.5943   -1069.1166    123.98746    72.302628    62.615913    36.072792   -317.95646    -311965.3 
    1820    226.08687    163310.11    72.302323    72.302323     36.07264          120     16120.86    18367.267   -36463.989    1087.6085   -1222.5441     306.6864    72.302323    62.615649     36.07264   -658.62084   -311967.28 
    1830    225.62842    163307.64    72.301959    72.301959    36.072459          120    16096.836    18142.777   -36664.945    1155.3978   -1860.6052     960.8013    72.301959    62.615334    36.072459   -808.44383   -311968.98 
    1840    224.85163    163304.72    72.301528    72.301529    36.072244          120    15973.255    18654.181   -36042.733    841.35066    -2320.889    668.17934    72.301528    62.614961    36.072244   -471.76563    -311969.7 
    1850    223.37262    163301.54    72.301058    72.301058    36.072009          120    16266.751    18889.127   -35888.014    324.73794   -2476.6017     427.5092    72.301058    62.614553    36.072009   -244.04536    -311968.8 
    1860    225.85591     163298.3     72.30058     72.30058    36.071771          120    16577.861    19415.178   -34777.013    607.53428   -2175.6877     694.2908     72.30058    62.614139    36.071771    405.34204   -311976.01 
    1870    222.11052    163295.36    72.300147    72.300147    36.071555          120    15976.934    19333.291   -34425.459     930.5302   -1990.6751    1069.3301    72.300147    62.613764    36.071555    294.92194   -311970.64 
    1880    221.51413    163292.72    72.299756    72.299757     36.07136          120    16261.526    18680.194   -34121.688     1071.089   -1734.2722    553.56172    72.299756    62.613426     36.07136    273.34405   -311971.74 
    1890    223.05423    163290.38    72.299412    72.299412    36.071188          120    17326.955    19416.477   -34263.576    1141.5883   -1972.3614    170.43827    72.299412    62.613128    36.071188    826.61849   -311975.99 
    1900    222.60731    163288.62    72.299151    72.299152    36.071058          120    17504.864    19086.722   -35092.126    1035.6463   -1699.6629    610.61732    72.299151    62.612902    36.071058    499.81989   -311976.96 
    1910    221.63758    163287.24    72.298948    72.298948    36.070956          120    17126.825    18460.707   -35494.722    981.74271   -1461.1158    297.17353    72.298948    62.612726    36.070956    30.936866   -311976.53 
    1920    220.84474    163285.94    72.298757    72.298757    36.070861          120    17059.399    18995.333   -35849.367    1299.4891   -1416.4466    348.02368    72.298757    62.612561    36.070861    68.455366   -311976.71 
    1930    221.49724    163284.75     72.29858    72.298581    36.070773          120    17473.775    19622.166   -35463.364    1369.7273   -1110.2569    595.49583     72.29858    62.612408    36.070773    544.19243   -311979.38 
    1940    219.60823    163283.91    72.298456    72.298457    36.070711          120    16801.291    19403.276   -35095.064    1107.3874   -878.10512   -283.75301    72.298456      62.6123    36.070711    369.83437   -311977.06 
    1950      218.934    163283.33    72.298371    72.298372    36.070669          120    15879.117    19244.384   -34881.013    1386.3786   -963.91675    -66.60576    72.298371    62.612227    36.070669    80.829412   -311976.35 
    1960    219.61742    163282.86    72.298301    72.298302    36.070634          120    16460.092    19027.932   -34631.175    1689.7961   -935.29961    289.23921    72.298301    62.612166    36.070634    285.61627   -311978.19 
    1970    222.42108    163282.55    72.298256    72.298256    36.070611          120    16656.129    18638.525   -35149.704    1666.0318   -735.87699    442.94464    72.298256    62.612127    36.070611    48.316891   -311984.41 
    1980    219.31466     163282.3    72.298218    72.298219    36.070592          120      16199.3    18310.504   -35200.316    1209.7281   -1208.2242    633.46505    72.298218    62.612094    36.070592   -230.17041   -311978.88 
    1990    219.71246    163281.89    72.298159    72.298159    36.070563          120    15985.664    18267.893   -35991.093    1106.2221     -1566.52    417.21724    72.298159    62.612043    36.070563   -579.17872   -311979.07 
    2000    217.95937    163281.13    72.298046    72.298046    36.070506          120      16320.7    18782.975    -36670.99    1090.8391   -1941.4217    617.39554    72.298046    62.611945    36.070506   -522.43798   -311975.63 
    2010     218.2361    163280.03    72.297884    72.297885    36.070426          120     16430.25    19212.315    -36357.94    993.51547   -1720.1836    663.66589    72.297884    62.611805    36.070426   -238.45858   -311976.02 
    2020    219.42382    163278.79    72.297701    72.297702    36.070334          120    16631.753    18616.016   -35107.963    1061.0662    -1670.155    931.01953    72.297701    62.611647    36.070334     46.60204   -311978.17 
    2030    221.86531    163277.62    72.297528    72.297528    36.070248          120    16949.106    18936.025   -34712.174    1153.9257   -2357.4142    852.41675    72.297528    62.611496    36.070248    390.98544   -311982.31 
    2040    221.09715    163276.74    72.297399    72.297399    36.070183          120    17196.216    19323.111   -35004.479    1392.9743    -1949.057     1205.268    72.297399    62.611384    36.070183    504.94918   -311980.23 
    2050     221.5288    163276.21    72.297321    72.297321    36.070145          120    17399.162    19118.084   -35282.482     1294.873   -1808.4432    1199.1426    72.297321    62.611317    36.070145    411.58769   -311980.19 
    2060    221.67244    163275.98    72.297286    72.297287    36.070127          120    16819.265    18934.962   -34764.027    761.70714   -1560.8062    1015.5405    72.297286    62.611287    36.070127    330.06658   -311979.46 
    2070    220.27564    163275.97    72.297284    72.297284    36.070126          120     16379.23    18893.556   -35032.516    1075.8729   -1351.2403    872.95665    72.297284    62.611285    36.070126    80.089915   -311975.51 
    2080    221.61022    163276.01     72.29729    72.297291    36.070129          120    15968.844    18909.674   -35199.205    1517.5595   -1395.1232    263.95498     72.29729    62.611291    36.070129   -106.89595   -311976.83 
    2090    221.28612    163275.95    72.297282    72.297283    36.070125          120    15674.357    18697.949   -36048.513    1535.7308    -1699.552    714.56789    72.297282    62.611284    36.070125   -558.73575   -311974.91 
    2100     221.7194    163275.57    72.297225    72.297226    36.070097          120    15454.684    18653.947    -35439.69    2008.3372   -2212.2835    96.391046    72.297225    62.611234    36.070097   -443.68638      -311974 
    2110    222.37535    163274.89    72.297126    72.297126    36.070047          120    16423.147    18174.507   -34973.954    1664.8603   -2376.4382    379.01511    72.297126    62.611148    36.070047    -125.4337   -311973.68 
    2120    222.95111    163274.14    72.297014    72.297014    36.069991          120    16585.611    18819.753   -34904.266    1511.9089   -2366.0188    1000.8798    72.297014    62.611051    36.069991     167.0329   -311972.66 
    2130    223.46189    163273.51    72.296922    72.296922    36.069946          120    16677.534    19448.353   -34773.634    1750.1039   -2457.2101    1043.1695    72.296922    62.610972    36.069946    450.75095   -311971.67 
    2140    225.03065    163273.19    72.296874    72.296875    36.069922          120    16540.471    19826.281   -34930.592    1555.9504   -2455.9061    1460.0476    72.296874     62.61093    36.069922    478.71986   -311973.09 
    2150     225.2916    163273.23     72.29688     72.29688    36.069925          120    16956.583    19931.102   -34467.987    1038.7497   -2312.9595    1487.2829     72.29688    62.610935    36.069925     806.5658   -311971.44 
    2160    226.43591    163273.81    72.296965    72.296966    36.069967          120    17278.633     19909.74   -34223.815    763.13148   -2781.6493     1449.357    72.296965    62.611009    36.069967    988.18608   -311971.46 
    2170     225.5357    163275.03    72.297146    72.297146    36.070057          120    17757.436    19748.239   -34696.029    1289.1968   -2500.6693     847.6025    72.297146    62.611166    36.070057    936.54829   -311967.97 
    2180    226.45184    163276.86    72.297416    72.297417    36.070192          120    18156.866    19610.511    -35070.53    1093.3145   -1719.9744    611.51676    72.297416      62.6114    36.070192    898.94885   -311967.68 
    2190    228.62987    163279.24    72.297767    72.297767    36.070367          120    17529.169    19332.351    -35269.58    1049.8889   -1595.9685    1080.9285    72.297767    62.611703    36.070367    530.64649   -311969.63 
    2200    227.37327    163281.93    72.298165    72.298165    36.070566          120    17216.833     19197.74   -35487.373    1042.4881   -1898.1949    923.57892    72.298165    62.612048    36.070566    309.06661   -311965.59 
    2210    228.69837     163284.8    72.298588    72.298588    36.070777          120    16989.498     19491.02   -35023.716     716.4999   -1553.9702    854.03128    72.298588    62.612414    36.070777    485.60064   -311966.23 
    2220    228.67698    163287.94    72.299051    72.299051    36.071008          120    17154.665    19909.578   -34545.788    987.44411    -1367.017    945.67415    72.299051    62.612815    36.071008     839.4852   -311965.17 
    2230    227.78267    163291.58    72.299588    72.299589    36.071276          120    16887.402     20587.55   -33951.829    1626.6133   -2210.8131    871.09876    72.299588    62.613281    36.071276    1174.3741   -311961.94 
    2240    230.90316     163295.9    72.300226    72.300226    36.071594          120    16584.815    20360.035   -34583.267    1614.9587   -2371.5468    1232.7907    72.300226    62.613833    36.071594    787.19453   -311966.98 
    2250     228.7109    163300.64    72.300925    72.300926    36.071943          120    15998.394    19486.295   -35080.852    1417.1384   -2664.4752    618.05942    72.300925    62.614439    36.071943    134.61235   -311960.97 
    2260    228.19271    163305.37    72.301623    72.301624    36.072291          120    16050.055    19367.988   -35750.767    1933.0517   -3090.7625    122.75522    72.301623    62.615043    36.072291   -110.90784   -311959.22 
[...]
   99200    222.10565    163668.23    72.355134    72.355135    36.098989          120    17759.836     19439.12   -36272.467    1680.2044   -2576.4177    299.93116    72.355134    62.661385    36.098989    308.82972   -312007.74 
   99210    223.38513    163670.79    72.355512    72.355512    36.099177          120    17195.701     19423.43   -35797.644    1912.0414   -2199.4579    881.51751    72.355512    62.661712    36.099177    273.82868   -312009.87 
   99220    224.43216    163673.54    72.355917    72.355918    36.099379          120    17230.993    18600.199   -35409.764    1551.6719   -2205.9477    583.00745    72.355917    62.662063    36.099379    140.47582   -312011.46 
   99230    224.32353    163676.39    72.356337    72.356338    36.099589          120    17384.984    18947.544   -35617.577    2091.2611    -2344.215     522.3475    72.356337    62.662427    36.099589     238.3167   -312010.84 
   99240    224.43776    163679.41    72.356782    72.356782    36.099811          120    17732.813    19007.785   -35444.162    2305.7019   -2305.6234    130.78826    72.356782    62.662812    36.099811    432.14539   -312010.36 
   99250    225.71577    163682.71    72.357268    72.357268    36.100053          120    17544.041    18911.873   -35807.466    2381.8496   -2456.0187    536.52906    72.357268    62.663233    36.100053    216.14932   -312012.74 
   99260    223.81737    163686.16    72.357776    72.357777    36.100307          120    17409.194    18711.541   -36220.339    2248.6395   -1543.9593    1167.9038    72.357776    62.663673    36.100307   -33.201587   -312008.61 
   99270    223.51846    163689.56    72.358278    72.358279    36.100557          120    17154.415    18386.512   -36863.988    2246.7851   -1951.7788    796.08969    72.358278    62.664108    36.100557   -441.02008    -312007.5 
   99280    225.32654    163692.68    72.358738    72.358739    36.100787          120    16679.153    18772.609   -36825.368    2209.6338   -1859.3439    591.91988    72.358738    62.664506    36.100787    -457.8686   -312010.53 
   99290    222.77663    163695.47    72.359148    72.359149    36.100991          120    16352.101    19120.833   -37017.035    2044.5317   -1979.8632    1004.3896    72.359148    62.664861    36.100991   -514.70027   -312005.29 
   99300    225.54375    163697.91    72.359508    72.359508     36.10117          120     15724.18     19346.16    -36185.56    2138.1663   -1657.7096    1142.5388    72.359508    62.665172     36.10117   -371.74016   -312010.16 
   99310    223.84461    163700.11    72.359832    72.359833    36.101332          120    16474.245    19118.356   -35475.311    2190.8633   -1475.2145    1451.1807    72.359832    62.665453    36.101332    39.096628   -312005.94 
   99320    226.47022    163702.28    72.360152    72.360152    36.101492          120    16994.921    18452.142   -36034.517    1790.9665   -2121.4903    1288.1533    72.360152     62.66573    36.101492   -195.81811   -312010.65 
   99330     225.6808    163704.32    72.360452    72.360453    36.101642          120    17218.962    18447.219   -36534.254     1504.685   -1860.2062    1064.5512    72.360452    62.665991    36.101642   -289.35769   -312008.98 
   99340    224.84669    163706.19    72.360728    72.360729    36.101779          120    16764.902    18791.614   -35383.484    1824.6489    -2157.686    858.95114    72.360728    62.666229    36.101779    57.677325   -312006.71 
   99350    226.84355    163708.07    72.361006    72.361006    36.101918          120    16462.311    19227.548   -35115.418    1634.5598   -1844.8188    694.80054    72.361006     62.66647    36.101918    191.48034   -312009.57 
   99360    224.48167    163710.08    72.361301    72.361302    36.102065          120    16602.705    19480.855   -35277.469    1598.1216    -1775.231    1382.5079    72.361301    62.666726    36.102065    268.69698    -312004.8 
   99370    225.53448    163712.23    72.361618    72.361618    36.102223          120     16634.88    19057.945   -35918.137    1656.0051   -2102.1159     408.8163    72.361618       62.667    36.102223   -75.104105   -312006.86 
   99380    226.19392    163714.33    72.361927    72.361928    36.102378          120    17007.491    17768.795   -36113.966    1411.5751   -2050.7442    574.19789    72.361927    62.667268    36.102378    -445.8934   -312007.92 
   99390    225.94869    163716.14    72.362194    72.362194    36.102511          120    17106.431     17670.07   -36406.452    1475.0163   -2103.3286    428.67463    72.362194    62.667499    36.102511   -543.31689   -312006.56 
   99400    224.97164    163717.58    72.362406    72.362406    36.102616          120    17428.765    17969.203   -36798.239    1795.7788   -2045.0272    399.18697    72.362406    62.667682    36.102616   -466.75712   -312004.54 
   99410    226.49865    163718.68    72.362568    72.362569    36.102697          120    16762.306    18333.108   -36550.812     2350.155   -2104.0929    521.40897    72.362568    62.667823    36.102697   -485.13244   -312007.15 
   99420    227.08737    163719.42    72.362678    72.362679    36.102752          120    16595.216    18219.079   -36853.334    2115.3602   -1985.9046       943.07    72.362678    62.667918    36.102752   -679.67966   -312008.28 
   99430    225.42949    163719.78     72.36273    72.362731    36.102778          120    17184.253    18769.246    -35577.82    1905.2671   -1972.4522    1266.4131     72.36273    62.667963    36.102778    125.22663   -312004.99 
   99440    227.35786    163720.19     72.36279    72.362791    36.102808          120    17153.878    18720.382   -34961.878      2010.78   -1788.0038    1112.4571     72.36279    62.668015    36.102808    304.12773   -312008.43 
   99450     225.6825    163720.76    72.362875    72.362876    36.102851          120    17632.294    17994.483   -36444.294    2216.1699   -1348.4152    1638.2272    72.362875    62.668089    36.102851   -272.50573   -312004.91 
   99460    226.81171    163721.22    72.362943    72.362944    36.102885          120    16414.672    18755.984   -35218.318    2129.7911   -1718.8974    1459.7672    72.362943    62.668148    36.102885   -15.887188   -312007.13 
   99470    225.79247     163721.6    72.362998    72.362999    36.102912          120    16308.414     18627.61   -36274.875    2279.5419   -2335.5347     840.9769    72.362998    62.668195    36.102912   -446.28341    -312005.4 
   99480    225.33586    163721.69    72.363012    72.363013    36.102919          120    16541.057    18392.581   -36498.801     1928.479   -2442.8434    614.41844    72.363012    62.668207    36.102919   -521.72103    -312004.9 
   99490    227.14887    163721.42    72.362971    72.362972    36.102899          120      16605.7    17581.057   -36407.914    1991.0604   -2783.7424    598.88268    72.362971    62.668172    36.102899   -740.38566   -312008.52 
   99500    224.61999    163720.62    72.362855    72.362855     36.10284          120    16390.319    17791.776   -36920.409    2065.5564   -2309.8501   -48.117411    72.362855    62.668071     36.10284   -912.77123   -312003.55 
   99510    225.59333    163719.23     72.36265     72.36265    36.102738          120    16906.068    17561.475   -36260.467     2153.369   -1670.0177    376.70373     72.36265    62.667894    36.102738   -597.64123   -312005.96 
   99520    224.27767    163717.37    72.362375    72.362376    36.102601          120    16411.728    17943.919   -36604.216    1889.8026   -2154.9326    920.08731    72.362375    62.667656    36.102601   -749.52287   -312003.38 
   99530    226.39789    163715.05    72.362033    72.362033     36.10243          120    16434.832    18997.872   -35653.607    1355.4647   -3022.2529    807.96446    72.362033    62.667359     36.10243   -73.634224   -312007.79 
   99540    225.60326     163712.6    72.361673    72.361673    36.102251          120    16590.489    18615.909   -36036.046    1820.6066    -2966.331     697.7075    72.361673    62.667048    36.102251     -276.549   -312006.76 
   99550    226.12808    163709.98    72.361287    72.361287    36.102058          120    16627.399    18619.418   -36939.142    1922.6345   -2289.2495    859.62212    72.361287    62.666713    36.102058   -564.10835   -312008.17 
   99560    224.72552       163707    72.360848    72.360848    36.101839          120    16973.999     18839.38   -37678.701    2063.9161   -2109.8373    830.97879    72.360848    62.666333    36.101839   -621.77417   -312005.49 
   99570     225.3115    163703.62     72.36035     72.36035    36.101591          120    17626.777    18366.714   -37152.924    2677.0171    -1956.493    1045.2801     72.36035    62.665902    36.101591   -386.47773   -312007.45 
   99580    225.44856    163699.98    72.359813    72.359814    36.101323          120    17582.255    18137.102   -35638.627    2318.0849   -2792.8262     799.3785    72.359813    62.665437    36.101323    26.910147   -312008.64 
   99590    224.49782    163696.32    72.359274    72.359274    36.101054          120    17124.957    18733.366   -35938.068    1783.7815   -2836.6976    892.78846    72.359274     62.66497    36.101054   -26.581673   -312007.49 
   99600    225.22235    163692.64    72.358732    72.358732    36.100783          120    16453.664     19150.15   -36108.961    1870.3028   -2064.3579    1074.4483    72.358732    62.664501    36.100783   -168.38205    -312009.8 
   99610    224.47347    163688.81    72.358167    72.358167    36.100501          120    15465.931    18519.053   -36495.894    2172.4675   -1587.1202    441.59101    72.358167    62.664011    36.100501   -836.97005   -312009.36 
   99620    224.66192    163684.45    72.357525    72.357526    36.100181          120    15757.562    18923.197   -36565.446    2267.0513   -1922.7305     571.1099    72.357525    62.663455    36.100181   -628.22904   -312010.95 
   99630     224.6151    163679.69    72.356823    72.356824    36.099831          120    17194.859    19073.095   -36021.699    2393.6206   -1835.1274    1259.1083    72.356823    62.662848    36.099831    82.085014   -312011.77 
   99640    222.81005    163674.95    72.356125    72.356125    36.099483          120    17252.866     18468.92   -35128.708     2235.876   -2008.0697    688.91734    72.356125    62.662243    36.099483    197.69241   -312009.47 
   99650    224.92492    163670.34    72.355445    72.355446    36.099144          120    17362.222    18006.986   -35192.282    1888.4338     -1982.08     1355.803    72.355445    62.661654    36.099144     58.97499   -312014.39 
   99660    222.08921     163665.8    72.354776    72.354777     36.09881          120    17747.724     18977.91    -35795.47    1573.0156   -1451.4788    1734.0905    72.354776    62.661075     36.09881    310.05502   -312009.43 
   99670    221.31693    163661.45    72.354135    72.354136     36.09849          120    17246.583     19038.71    -36011.09    1832.1233   -1702.2114    580.62477    72.354135     62.66052     36.09849    91.400938   -312008.39 
   99680    224.82736    163657.15    72.353502    72.353503    36.098174          120    16944.385    18206.267   -36259.494    2185.2315   -2341.2758    379.26964    72.353502    62.659972    36.098174   -369.61366   -312014.98 
   99690    223.70663    163652.65    72.352839     72.35284    36.097843          120     17259.75    18032.227   -36151.866    2151.9078   -2431.5959     204.2119    72.352839    62.659397    36.097843   -286.62985   -312013.49 
   99700    222.51353    163647.97    72.352149     72.35215    36.097499          120    17533.682    18384.075   -35845.841    2116.4136    -2474.907    357.42451    72.352149      62.6588    36.097499    23.971943   -312011.02 
   99710    221.44666    163643.33    72.351465    72.351465    36.097158          120    17788.856    19532.255   -35813.071    2341.8391   -2053.5591    838.08613    72.351465    62.658207    36.097158    502.67985   -312009.35 
   99720     224.5353    163639.02    72.350829     72.35083    36.096841          120    17944.971    19399.177   -35612.299    2366.2733   -1047.3306    762.09815    72.350829    62.657657    36.096841    577.28297   -312015.16 
   99730    220.66677    163635.11    72.350254    72.350255    36.096554          120    17308.666    19446.355   -35349.955    2362.0456   -1389.7133    995.39083    72.350254    62.657159    36.096554    468.35555   -312007.23 
   99740    222.55458    163631.53    72.349726    72.349726     36.09629          120     17034.61    19449.596   -35573.072    2569.3106   -2280.6365    1208.5444    72.349726    62.656701     36.09629    303.71173   -312010.64 
   99750    225.40775    163628.15    72.349228    72.349228    36.096042          120    17189.046     19421.64   -36335.173    2240.4203   -1854.2748    574.39411    72.349228     62.65627    36.096042    91.837872   -312015.32 
   99760    224.51529    163624.87    72.348745    72.348746    36.095801          120    17614.668    19235.955   -35681.989     2008.611   -1541.1771    820.31004    72.348745    62.655852    36.095801    389.54489    -312013.8 
   99770    223.65594    163621.84    72.348298    72.348298    36.095578          120    17723.323    19993.879   -36459.175    2489.9021   -1416.4415    994.67986    72.348298    62.655464    36.095578    419.34235   -312011.61 
   99780    221.70052    163619.07    72.347889     72.34789    36.095374          120    17525.832    20197.947   -37419.625    2021.9514   -874.84814    589.48763    72.347889     62.65511    36.095374    101.38467    -312007.5 
   99790    224.48626    163616.38    72.347493    72.347493    36.095176          120    16512.105    19979.435   -36950.403    1963.3994   -1555.1626    958.02805    72.347493    62.654767    36.095176   -152.95457   -312012.78 
   99800    222.68333    163613.64    72.347089    72.347089    36.094975          120    16087.862    20245.727   -35878.956    1826.7629    -2449.167     990.6271    72.347089    62.654417    36.094975    151.54422    -312008.9 
   99810    222.89591    163610.97    72.346695    72.346696    36.094778          120    16870.375    19605.881    -35689.91    1269.2121    -2510.402    1126.9621    72.346695    62.654077    36.094778    262.11557   -312008.63 
   99820    224.70919    163608.51    72.346333    72.346334    36.094598          120    17237.807     19722.41    -34375.85    1062.9557    -2136.114    1359.9438    72.346333    62.653763    36.094598    861.45578   -312011.57 
   99830    225.18959    163606.63    72.346057    72.346057     36.09446          120     17260.78    19643.284   -33898.716    1315.7795   -2147.1897    158.67735    72.346057    62.653523     36.09446    1001.7827   -312012.21 
   99840    225.35945    163605.42    72.345878    72.345878     36.09437          120    17480.165    19322.521   -34999.169     1779.999   -1652.7575     840.7898    72.345878    62.653369     36.09437      601.172   -312012.22 
   99850    224.45756    163604.64    72.345764    72.345764    36.094313          120    17378.159    19091.775   -35165.958    2434.9987   -1469.8207    674.44224    72.345764     62.65327    36.094313    434.65829   -312010.11 
   99860    224.37222    163604.19    72.345697    72.345697     36.09428          120    17820.118    19059.699   -34997.608    2880.4637   -1729.8231    584.78406    72.345697    62.653212     36.09428     627.4029   -312009.04 
   99870    225.17497    163604.18    72.345695    72.345696    36.094279          120     17897.99    19499.306   -34684.404    2572.3587   -1623.4998    988.81684    72.345695    62.653211    36.094279    904.29757   -312010.43 
   99880    223.47001    163604.81    72.345787    72.345788    36.094325          120    18081.801    20108.618   -34478.884    1983.4966   -1590.1675    1519.8855    72.345787     62.65329    36.094325    1237.1784   -312006.57 
   99890    225.94475    163606.26    72.346002    72.346002    36.094432          120    18094.858    19974.226   -34606.476    1999.1508   -1978.1436    1569.0019    72.346002    62.653476    36.094432    1154.2028   -312011.04 
   99900    224.77589     163608.5    72.346332    72.346333    36.094597          120    17888.822    19600.349   -35049.245    2128.0583   -2107.0208    1219.2111    72.346332    62.653762    36.094597    813.30873   -312008.16 
   99910    225.80177    163611.35    72.346752    72.346752    36.094806          120    17874.413    19040.259   -34253.039      2166.29   -2074.6748    1400.7434    72.346752    62.654126    36.094806     887.2108   -312009.59 
   99920    224.09997    163614.77    72.347255    72.347256    36.095058          120    17866.007    18872.691   -35066.355    2205.3383   -2188.4138    930.89065    72.347255    62.654562    36.095058    557.44764    -312006.2 
   99930    225.69219    163618.57    72.347816    72.347817    36.095338          120    17128.757    18953.382   -35293.224    2243.7393   -2069.0015    723.42022    72.347816    62.655047    36.095338    262.97169   -312008.94 
   99940    224.55459    163622.53      72.3484      72.3484    36.095629          120     16574.26    18777.823   -35923.206    1653.0009   -2540.0022    849.76873      72.3484    62.655553    36.095629   -190.37431   -312006.52 
   99950    225.96941     163626.4    72.348971    72.348971    36.095913          120    17122.469    19211.381   -36168.559    1318.3662   -2220.6687    471.42426    72.348971    62.656047    36.095913    55.097073   -312009.52 
   99960    224.49117    163630.33    72.349549    72.349549    36.096202          120    17262.717    20169.734   -35771.508    1891.0768   -1459.2715     221.7814    72.349549    62.656548    36.096202    553.64756   -312006.32 
   99970     227.6295    163634.57    72.350174    72.350174    36.096514          120    17368.637    19189.589   -35406.058    2261.7516   -2155.3959    723.01393    72.350174    62.657089    36.096514    384.05601   -312012.37 
   99980    222.96983     163639.1    72.350842    72.350843    36.096847          120     18026.48    19401.306   -35523.368    2476.0852   -2212.4392    1390.3951    72.350842    62.657668    36.096847    634.80592   -312002.71 
   99990    225.43551    163644.08    72.351576    72.351576    36.097213          120    18181.104    19998.589   -34833.963    2628.1496   -2005.8113    1268.3653    72.351576    62.658303    36.097213    1115.2433   -312007.28 
  100000    229.07875    163649.76    72.352413    72.352414    36.097631          120    17393.651     19580.04   -34757.406    2653.7677   -2559.6896    615.22566    72.352413    62.659028    36.097631    738.76184   -312013.99 
Loop time of 31177.3 on 1 procs for 100000 steps with 14848 atoms

Performance: 0.277 ns/day, 86.604 hours/ns, 3.207 timesteps/s
93.4% CPU use with 1 MPI tasks x no OpenMP threads

MPI task timing breakdown:
Section |  min time  |  avg time  |  max time  |%varavg| %total
---------------------------------------------------------------
Pair    | 26312      | 26312      | 26312      |   0.0 | 84.40
Bond    | 0.016808   | 0.016808   | 0.016808   |   0.0 |  0.00
Kspace  | 1097.1     | 1097.1     | 1097.1     |   0.0 |  3.52
Neigh   | 3098.6     | 3098.6     | 3098.6     |   0.0 |  9.94
Comm    | 36.799     | 36.799     | 36.799     |   0.0 |  0.12
Output  | 1.0475     | 1.0475     | 1.0475     |   0.0 |  0.00
Modify  | 621.7      | 621.7      | 621.7      |   0.0 |  1.99
Other   |            | 9.75       |            |       |  0.03

Nlocal:    14848 ave 14848 max 14848 min
Histogram: 1 0 0 0 0 0 0 0 0 0
Nghost:    46736 ave 46736 max 46736 min
Histogram: 1 0 0 0 0 0 0 0 0 0
Neighs:    1.0056e+07 ave 1.0056e+07 max 1.0056e+07 min
Histogram: 1 0 0 0 0 0 0 0 0 0

Total # of neighbors = 10056021
Ave neighs/atom = 677.264
Ave special neighs/atom = 0
Neighbor list builds = 11212
Dangerous builds = 0
 
All done!
Total wall time: 8:44:39
