LAMMPS (16 Mar 2018)
Reading data file ...
  triclinic box = (0 0 0) to (9.208 7.97436 18.376) with tilt (-4.604 0 0)
  1 by 1 by 1 MPI processor grid
  reading atoms ...
  116 atoms
Finding 1-2 1-3 1-4 neighbors ...
  special bond factors lj:   0          0          0         
  special bond factors coul: 0          0          0         
  0 = max # of 1-2 neighbors
  0 = max # of 1-3 neighbors
  0 = max # of 1-4 neighbors
  1 = max # of special neighbors
Replicating atoms ...
  triclinic box = (0 0 0) to (73.664 63.7949 36.752) with tilt (-36.832 0 0)
  1 by 1 by 1 MPI processor grid
  14848 atoms
Finding 1-2 1-3 1-4 neighbors ...
  special bond factors lj:   0          0          0         
  special bond factors coul: 0          0          0         
  0 = max # of 1-2 neighbors
  0 = max # of 1-3 neighbors
  0 = max # of 1-4 neighbors
  1 = max # of special neighbors
  Time spent = 0.00267911 secs
PPPM initialization ...
WARNING: System is not charge neutral, net charge = -0.2048 (../kspace.cpp:302)
  using 12-bit tables for long-range coulomb (../kspace.cpp:321)
  G vector (1/distance) = 0.201681
  grid = 36 50 24
  stencil order = 5
  estimated absolute RMS force accuracy = 0.00105653
  estimated relative force accuracy = 7.33721e-05
  using double precision FFTs
  3d grid and FFT values/proc = 65395 43200
Neighbor list info ...
  update every 1 steps, delay 0 steps, check yes
  max neighbors/atom: 2000, page size: 100000
  master list distance cutoff = 15.3
  ghost atom cutoff = 15.3
  binsize = 7.65, bins = 15 9 5
  3 neighbor lists, perpetual/occasional/extra = 3 0 0
  (1) pair morse, perpetual
      attributes: half, newton on
      pair build: half/bin/newton/tri
      stencil: half/bin/3d/newton/tri
      bin: standard
  (2) pair buck, perpetual, copy from (1)
      attributes: half, newton on
      pair build: copy
      stencil: none
      bin: none
  (3) pair lj/cut/coul/long, perpetual, copy from (1)
      attributes: half, newton on
      pair build: copy
      stencil: none
      bin: none
Setting up Verlet run ...
  Unit style    : metal
  Current step  : 0
  Time step     : 0.001
Per MPI rank memory allocation (min/avg/max) = 145.7 | 145.7 | 145.7 Mbytes
Step Temp Volume Cella Cellb Cellc CellGamma Pxx Pyy Pzz Pxy Pxz Pyz Lx Ly Lz Press PotEng 
       0          200    172711.88       73.664    73.664001       36.752          120   -209133.79   -209163.49   -280147.32    17.047351   -5.0886883    6.8009069       73.664    63.794896       36.752   -232814.87   -309191.56 
      10     312.4648     172610.6    73.649598    73.649599    36.744815          120    -211852.7   -211938.87   -259171.66    99.580072   -15.946832   -149.36632    73.649598    63.782424    36.744815   -227654.41      -309447 
      20     571.1852    172313.07    73.607256    73.607257     36.72369          120   -210274.11   -209900.19   -200144.12    24.863506   -231.66551   -321.08473    73.607256    63.745755     36.72369   -206772.81   -310002.07 
      30    559.86474    171846.51    73.540763    73.540764    36.690515          120   -186138.63   -185653.43   -120089.58   -210.85196   -765.48358   -400.41856    73.540763     63.68817    36.690515   -163960.55   -310059.91 
      40    339.28317    171271.02    73.458579    73.458579    36.649512          120    -144258.8   -144277.28   -40743.453   -513.09355   -1129.3148   -446.46572    73.458579    63.616996    36.649512   -109759.84   -309701.06 
      50    420.06373       170668    73.372265    73.372266    36.606449          120   -101788.02   -102170.16    -5302.605   -630.52639   -1196.3587   -601.16049    73.372265    63.542246    36.606449   -69753.597   -309895.78 
      60    731.66254     170103.1    73.291224    73.291224    36.566017          120   -72701.344   -72598.528   -39975.752   -588.58659   -2104.3819   -452.83204    73.291224    63.472062    36.566017   -61758.541   -310536.42 
      70    919.90406    169599.71    73.218855    73.218855    36.529911          120   -52488.257   -52118.554   -102368.34   -1450.2992   -2432.7754   -378.72507    73.218855    63.409389    36.529911   -68991.717   -310973.42 
      80    775.25664    169151.24     73.15426     73.15426    36.497683          120   -39696.342   -40184.492   -147754.94   -1728.0573   -2981.6081    135.74805     73.15426    63.353448    36.497683   -75878.593   -310775.94 
      90    499.93573    168741.68    73.095171    73.095171    36.468203          120   -33150.846   -33762.007   -162903.86   -1926.6194   -3508.9863   -34.575843    73.095171    63.302275    36.468203   -76605.569   -310308.15 
     100    520.74996    168358.23    73.039761    73.039762    36.440559          120   -18464.171   -18477.573   -143132.51   -1705.6276   -3273.9157    -562.7141    73.039761     63.25429    36.440559   -60024.753   -310394.52 
     110    694.77021    168000.64    72.988012    72.988013     36.41474          120    621.94969    565.37276   -100205.93   -1819.0002   -2596.8182   -648.58906    72.988012    63.209473     36.41474   -33006.203   -310783.59 
     120    691.17912     167676.9      72.9411      72.9411    36.391335          120    11309.542     11391.35    -48719.77   -1773.5622    -2178.455    -1214.859      72.9411    63.168846    36.391335   -8672.9593    -310838.5 
     130    583.95843    167393.72    72.900015    72.900015    36.370837          120    9617.5246    10581.495   -8195.7825   -1792.4227   -2143.9215   -1156.2598    72.900015    63.133265    36.370837    4001.0791   -310685.32 
     140    538.96283    167150.65    72.864712    72.864713    36.353224          120    4637.6811    4647.6657    4084.7015   -1317.2192   -2011.7295   -926.70144    72.864712    63.102693    36.353224    4456.6828   -310640.96 
     150    595.99661    166939.71    72.834048    72.834049    36.337926          120    -2921.099   -1875.4803   -19888.878   -1876.1122   -1516.0544     -493.241    72.834048    63.076137    36.337926   -8228.4857   -310794.48 
     160    655.54024    166745.76    72.805831    72.805831    36.323847          120    -13507.83   -11689.979   -57291.229   -1599.5178    -1636.907   -414.56629    72.805831    63.051699    36.323847   -27496.346    -310964.4 
     170     629.6322    166551.77    72.777586    72.777586    36.309756          120   -18384.407   -16204.356    -87503.17   -632.60159   -2248.4861   -684.05269    72.777586    63.027239    36.309756   -40697.311    -310975.8 
     180    548.51886     166347.3    72.747792    72.747792    36.294891          120   -14783.932   -12423.215    -103881.9   -297.15386   -2373.0425   -809.01144    72.747792    63.001436    36.294891   -43696.349   -310875.73 
     190    527.92313    166130.95    72.716239     72.71624    36.279149          120   -9526.9617   -7343.2146   -100674.15     259.0192   -2053.7815   -561.25242    72.716239    62.974111    36.279149   -39181.441   -310884.74 
     200    567.32663     165907.7    72.683653    72.683653    36.262891          120   -4968.4579   -3568.2495   -80457.299   -330.44216   -2119.8769    -440.3518    72.683653     62.94589    36.262891   -29664.669   -311010.36 
     210    569.89631    165686.01    72.651264    72.651264    36.246732          120   -647.41392    1109.1897   -56005.665   -995.83231   -2198.4677    -387.9529    72.651264    62.917841    36.246732    -18514.63   -311067.83 
     220    537.62577    165474.67    72.620361    72.620361    36.231314          120    3199.5784    4702.5716   -36356.157   -642.79029   -1826.6507   -1298.4047    72.620361    62.891078    36.231314    -9484.669   -311054.59 
     230    516.65107    165279.56    72.591807    72.591808    36.217068          120    4239.4017    4626.9039   -29726.491   -445.36263   -1243.4746   -1874.3054    72.591807     62.86635    36.217068   -6953.3953   -311058.84 
     240    519.81504    165101.09     72.56567    72.565671    36.204028          120    2475.8317    2509.5672    -35591.86   -287.16686   -1841.9078   -2214.1875     72.56567    62.843714    36.204028   -10202.154   -311108.58 
     250    534.73426    164935.14    72.541349     72.54135    36.191894          120    301.61231   -135.53851    -50256.06    24.982401   -1705.5096   -2360.5139    72.541349    62.822652    36.191894   -16696.662   -311183.66 
     260    525.42192    164775.69    72.517966    72.517966    36.180227          120    41.857654   -1576.7618   -65246.702   -147.50546   -1649.2089   -2393.5978    72.517966    62.802401    36.180227   -22260.535   -311213.28 
     270    496.35214    164617.98    72.494821    72.494822     36.16868          120    784.40485   -952.17525   -73555.643   -751.47423    -1370.991   -1566.9515    72.494821    62.782357     36.16868   -24574.471   -311203.87 
     280    479.07779    164460.14    72.471644    72.471644    36.157117          120     1889.239    924.87287   -71652.854   -608.89279   -1056.2592   -636.86598    72.471644    62.762285    36.157117   -22946.247   -311213.36 
     290    482.03493    164303.46    72.448622    72.448622    36.145631          120    4907.3521     4891.174   -61483.748   -546.63635   -1386.0395   -516.39232    72.448622    62.742348    36.145631   -17228.407    -311260.9 
     300    482.66373    164151.88    72.426337    72.426337    36.134512          120    8695.9627    8870.7447    -47149.32   -127.29189   -1618.3527   -368.07677    72.426337    62.723048    36.134512   -9860.8709   -311303.98 
     310    472.64025    164010.12    72.405481    72.405482    36.124107          120     11125.47    10990.549   -33072.418    259.11157   -1578.7635   -639.55828    72.405481    62.704987    36.124107   -3652.1329   -311324.71 
     320     456.4724    163881.33    72.386524    72.386525    36.114649          120    10521.585      11188.9   -25991.169   -74.939586   -1916.5119   -1514.7121    72.386524    62.688569    36.114649   -1426.8945   -311332.07 
     330    453.86506    163765.53     72.36947    72.369471    36.106141          120    8785.0437    10170.202   -27540.962   -259.86789   -1746.1648   -1616.3588     72.36947      62.6738    36.106141   -2861.9054   -311364.58 
     340    451.36563    163660.09    72.353936    72.353936    36.098391          120    7798.0298     9544.606   -37157.541   -228.88362   -1309.2663   -1554.1856    72.353936    62.660347    36.098391   -6604.9685   -311396.43 
     350    443.44678       163561    72.339329     72.33933    36.091103          120    7550.7433    8973.6633   -48906.515    -542.0223   -753.29831   -1561.4039    72.339329    62.647698    36.091103   -10794.036   -311418.25 
     360    429.65246    163464.48    72.325097    72.325097    36.084003          120    7852.9413    9809.6638   -55482.539   -863.74296   -583.46219   -2662.9631    72.325097    62.635372    36.084003   -12606.645   -311427.23 
     370    415.81359    163368.78    72.310981    72.310982     36.07696          120    8497.3265    12237.145   -55568.182   -913.87378   -1953.2446   -2874.3182    72.310981    62.623147     36.07696   -11611.237   -311434.97 
     380    412.75338    163274.38    72.297049     72.29705    36.070009          120    10990.732    14240.752   -50104.256    -977.9133   -2178.3885   -2155.0808    72.297049    62.611082    36.070009    -8290.924   -311461.57 
     390     411.5545    163183.38    72.283616    72.283616    36.063307          120    13644.382    15739.069   -40603.166   -1031.2212    -2677.033   -2059.7908    72.283616    62.599448    36.063307   -3739.9051   -311492.14 
     400    399.38042    163098.57    72.271092    72.271092    36.057059          120    15154.001    16663.145   -30948.891   -207.73688   -3001.7519   -1607.5404    72.271092    62.588602    36.057059     289.4183   -311500.04 
     410    389.82386    163022.13    72.259799      72.2598    36.051424          120     16219.08    17765.964   -26296.156   -153.06769    -2199.837   -1903.0209    72.259799    62.578822    36.051424    2562.9625   -311511.38 
     420    389.72804    162954.71    72.249836    72.249837    36.046454          120     15873.57    17903.526   -27481.887   -99.086699   -1947.9776   -1164.4278    72.249836    62.570194    36.046454    2098.4032   -311541.15 
     430    381.38236    162895.02    72.241014    72.241015    36.042052          120    15113.978     16758.89   -32566.515    21.593995   -1711.2337   -367.46457    72.241014    62.562554    36.042052   -231.21558   -311554.06 
     440    373.41179    162840.59    72.232967    72.232968    36.038038          120    14846.031    15530.256   -39256.664   -59.769511   -2273.7811    -656.0587    72.232967    62.555585    36.038038   -2960.1253   -311567.54 
     450    364.54738    162788.92    72.225326    72.225327    36.034225          120    15332.528    14960.399   -43557.659    26.025416   -1898.7822   -613.42759    72.225326    62.548968    36.034225   -4421.5773   -311577.24 
     460    360.81366    162738.74    72.217903    72.217904    36.030522          120    17542.453    16489.319   -43344.485    402.43272   -1834.7042   -686.83407    72.217903    62.542539    36.030522   -3104.2379   -311596.38 
     470    355.23756    162690.68    72.210794    72.210795    36.026975          120    19667.066    18338.575   -39577.104    483.15795   -2910.2246   -267.97399    72.210794    62.536383    36.026975   -523.82101   -311611.39 
     480    349.32311    162646.38    72.204239     72.20424    36.023705          120    20192.465    20182.932   -33232.861    845.40556   -2733.4297   0.49047479    72.204239    62.530706    36.023705    2380.8451   -311625.49 
     490    344.07899    162607.49    72.198484    72.198485    36.020834          120    20150.349    21610.997   -29000.409    1132.4913   -2262.4714     127.7856    72.198484    62.525722    36.020834    4253.6458   -311639.82 
     500    338.47877    162574.95    72.193668    72.193668    36.018431          120    20257.911    22644.567   -26894.598    1289.5539   -2036.0505    985.67991    72.193668    62.521551    36.018431    5335.9599   -311652.54 
     510    334.35101    162548.85    72.189803    72.189804    36.016503          120    19153.692    21791.984   -28528.145    1205.8749   -2177.5267    899.01346    72.189803    62.518204    36.016503    4139.1771   -311667.88 
     520    326.37248    162527.86    72.186696    72.186697    36.014952          120    18566.994    20079.304   -31503.606    763.51982   -2154.6699    681.05975    72.186696    62.515513    36.014952    2380.8973   -311674.63 
     530    322.56699    162510.28    72.184094    72.184094    36.013654          120    18362.168    19846.784   -35573.371    469.62794   -2173.1005    405.04305    72.184094     62.51326    36.013654    878.52725   -311689.06 
     540    317.15626    162494.71    72.181789    72.181789    36.012504          120    17719.703    20410.454   -38375.995    647.14346   -2454.8792     195.7719    72.181789    62.511263    36.012504   -81.945837   -311699.84 
     550    312.15688    162480.35    72.179663    72.179663    36.011443          120    17661.943    21488.861   -37946.128    899.42007   -2382.2114   -53.169367    72.179663    62.509422    36.011443    401.55873   -311710.46 
     560    308.90541    162467.41    72.177745    72.177746    36.010487          120    18534.709    22017.451   -35833.688    432.26103   -2506.7944    457.36161    72.177745    62.507762    36.010487    1572.8241   -311724.44 
     570    303.03946    162456.62    72.176147    72.176148    36.009689          120    19699.701    22278.922   -32292.447    730.63151   -2976.3949    605.18675    72.176147    62.506378    36.009689    3228.7257   -311732.98 
     580    297.26622    162448.99    72.175018    72.175019    36.009126          120    20651.773    22419.818   -29275.936    1342.7496   -2818.8542    255.45403    72.175018      62.5054    36.009126    4598.5519   -311740.41 
     590    295.50662    162445.29     72.17447    72.174471    36.008853          120    20641.105    22332.094   -27335.483    1304.4841   -3030.1491    124.93271     72.17447    62.504925    36.008853    5212.5719   -311755.28 
     600    288.29901    162445.66    72.174525    72.174526     36.00888          120    20698.976    21864.864   -28270.837    1103.5229   -2549.5208   -58.582516    72.174525    62.504973     36.00888    4764.3344   -311759.31 
     610     288.1229     162449.5    72.175093    72.175094    36.009164          120    20356.896    20988.787   -30719.892    744.18807   -2149.6409   -228.49812    72.175093    62.505465    36.009164    3541.9301   -311776.45 
     620    284.75356    162455.71    72.176013    72.176014    36.009623          120    19617.003    20827.109   -33629.101    542.90744   -2553.0144   -503.09536    72.176013    62.506262    36.009623    2271.6705   -311787.09 
     630    277.21096    162463.24    72.177128    72.177128    36.010179          120    19543.288    20454.578   -35849.081    541.42576   -2224.3653   -774.91849    72.177128    62.507227    36.010179    1382.9283   -311789.77 
     640    273.21882    162471.36     72.17833    72.178331    36.010779          120    19647.563    20558.671   -35804.405    1016.4194   -2316.6018   -278.14538     72.17833    62.508268    36.010779    1467.2765   -311797.79 
     650    269.36519    162480.07    72.179621    72.179622    36.011423          120     20261.61    21026.834   -34440.596    1209.7255   -2774.1846   -455.20028    72.179621    62.509386    36.011423    2282.6163    -311805.1 
     660     268.9558    162489.99    72.181089    72.181089    36.012155          120    21084.724     21841.58   -31580.457    926.51115   -2901.7735   -753.99491    72.181089    62.510657    36.012155    3781.9488   -311819.37 
     670    264.58112     162502.1    72.182882    72.182882    36.013049          120    21879.386    22385.407   -28954.358    786.09293   -2481.9218   -740.52854    72.182882     62.51221    36.013049    5103.4782   -311825.23 
     680    259.83634    162517.15    72.185111    72.185112    36.014162          120    21107.764    22195.713   -28925.391    305.20854   -2495.9303   -506.48855    72.185111    62.514141    36.014162    4792.6952   -311830.55 
     690    257.50659    162534.78    72.187721    72.187722    36.015464          120    19671.847    21549.943   -30978.372    44.097846   -2754.5311    42.815423    72.187721    62.516401    36.015464    3414.4727   -311840.69 
     700    254.34201     162553.9    72.190552    72.190552    36.016876          120     19118.26    20626.275   -32835.441    202.94492   -2842.4387    151.09157    72.190552    62.518852    36.016876    2303.0312   -311848.11 
     710    253.47069    162573.58    72.193464    72.193465    36.018329          120    18243.035    19984.483    -34013.15    87.069731   -2504.3006    450.44056    72.193464    62.521375    36.018329    1404.7894   -311858.95 
     720    247.75715    162593.16    72.196363    72.196363    36.019775          120    18411.061     20640.07   -35253.757    335.65621   -1722.3551   -102.99759    72.196363    62.523885    36.019775    1265.7912    -311861.2 
     730    246.05098    162612.56    72.199235    72.199235    36.021208          120    19166.817     21237.76   -34550.426    599.57771   -1520.5333   -218.72748    72.199235    62.526372    36.021208    1951.3836   -311870.21 
     740    243.36787    162632.28    72.202153    72.202153    36.022664          120    19873.366    21299.639   -32932.138     671.6552   -1919.6081   -394.75555    72.202153    62.528899    36.022664    2746.9553   -311876.79 
     750     239.7862    162652.85    72.205197    72.205197    36.024183          120    19861.034    20988.941    -31795.02    829.87138   -1870.8822   -879.52526    72.205197    62.531535    36.024183    3018.3183   -311881.08 
     760    237.18257    162674.47    72.208395    72.208396    36.025778          120    19681.159    20691.905   -31355.966    483.67548   -1533.9804   -539.37452    72.208395    62.534305    36.025778    3005.6992   -311886.61 
     770    234.38507    162697.06    72.211738    72.211738    36.027446          120    19484.294    20746.942   -32046.873    625.22137   -1539.9005    -851.5483    72.211738      62.5372    36.027446    2728.1209   -311892.28 
     780    233.73742    162720.37    72.215186    72.215186    36.029166          120    18832.006     20210.87   -33063.402    611.06623   -1600.8139   -730.67856    72.215186    62.540186    36.029166    1993.1579   -311901.75 
     790    229.75477    162743.82    72.218655    72.218656    36.030897          120     17901.49    19624.559   -34156.491    481.04643   -1899.6847   -130.94632    72.218655    62.543191    36.030897     1123.186   -311904.47 
     800    227.49179    162766.85    72.222061    72.222062    36.032596          120    18202.829    19724.918   -34965.351    1116.4754   -2194.8271   -165.49622    72.222061     62.54614    36.032596    987.46518   -311910.16 
     810    225.77096    162789.29     72.22538    72.225381    36.034252          120    18283.777    19601.665   -36154.642    1343.5077   -2343.6657   -70.678461     72.22538    62.549015    36.034252    576.93348   -311916.35 
     820     221.1392    162810.94    72.228582    72.228582     36.03585          120    18348.097    19129.853    -35871.21    1225.7728   -2214.9825    275.17271    72.228582    62.551787     36.03585    535.58013   -311916.87 
     830     221.0752    162831.78    72.231664    72.231665    36.037388          120    18179.706    18799.602   -34885.568    1351.0846   -2817.7696    271.40963    72.231664    62.554457    36.037388    697.91352    -311925.4 
     840    218.24065    162852.01    72.234655    72.234656     36.03888          120    18196.678     18694.18   -33955.238    1254.6607   -2701.7947   -282.68087    72.234655    62.557047     36.03888    978.54007    -311928.5 
     850    217.59998    162871.86     72.23759    72.237591    36.040344          120    18216.805    18391.157   -33611.147    728.96453   -1640.4703   -123.56556     72.23759    62.559589    36.040344    998.93865   -311935.65 
     860    215.10168    162891.33    72.240468    72.240468     36.04178          120    17499.671    18090.367   -34710.117    927.16349   -1277.4381    -11.46644    72.240468    62.562081     36.04178    293.30684   -311938.77 
     870    213.28345    162910.01    72.243229    72.243229    36.043157          120    17156.315    17912.577   -34780.358    771.55554    -1079.317    381.20608    72.243229    62.564472    36.043157    96.177999    -311942.3 
     880    212.20261    162927.73    72.245849    72.245849    36.044465          120    17038.439    18429.014   -35743.695    908.40738   -1373.6237    399.32217    72.245849    62.566741    36.044465   -92.081041   -311948.11 
     890    210.45839    162944.45     72.24832     72.24832    36.045697          120    16807.339    18715.817   -36181.692    1258.0161   -1686.1294    499.57639     72.24832    62.568881    36.045697   -219.51225   -311951.92 
     900     208.2557    162960.09    72.250632    72.250633    36.046851          120    16258.969    18839.203   -36707.131    1092.4683   -2083.9667     307.8878    72.250632    62.570883    36.046851   -536.31956   -311954.57 
     910    207.19273    162974.53    72.252765    72.252766    36.047915          120    16432.916    18874.028   -36988.256    1608.3359   -2653.5469   -258.39286    72.252765    62.572731    36.047915   -560.43719    -311959.4 
     920    205.45938    162987.75    72.254719     72.25472     36.04889          120    16877.841    17646.428   -36879.099    2289.2316   -2768.7905   -380.58358    72.254719    62.574423     36.04889   -784.94363   -311962.29 
     930    203.34738    162999.73     72.25649     72.25649    36.049773          120    16911.931    17717.239   -36254.566    2221.2533   -2772.3959   -482.59576     72.25649    62.575956    36.049773   -541.79894   -311964.23 
     940    202.92003    163010.69    72.258108    72.258109    36.050581          120    16627.056    18064.531   -35658.375    1934.2988   -2897.4741   -672.21742    72.258108    62.577358    36.050581   -322.26276   -311969.37 
     950    201.28042     163020.8    72.259602    72.259603    36.051326          120    16282.506    17340.874   -35434.955    1413.4078   -3071.9488    -1019.691    72.259602    62.578652    36.051326   -603.85842   -311971.73 
     960    199.71594    163029.94    72.260953    72.260954       36.052          120    16007.903    17576.428   -36141.028    1191.2442   -2626.7876   -545.70319    72.260953    62.579822       36.052   -852.23226   -311973.37 
     970    197.79307    163037.95    72.262136    72.262136     36.05259          120    16225.421    16483.515   -36712.588    1301.1411   -2828.8486    316.32392    72.262136    62.580846     36.05259   -1334.5508   -311974.33 
     980    196.02235    163044.56    72.263113    72.263114    36.053078          120    16462.459    16089.145   -36861.314    1490.4555   -2977.5029     317.7532    72.263113    62.581692    36.053078   -1436.5698   -311975.36 
     990    195.19037    163049.78    72.263884    72.263885    36.053463          120    16334.151    16800.293   -36718.764    1818.5618   -2699.0562    257.53122    72.263884     62.58236    36.053463   -1194.7729   -311978.12 
    1000     195.6457    163053.81     72.26448     72.26448     36.05376          120     16241.41    16989.431   -36825.374    1848.2664   -2710.9618   -34.125013     72.26448    62.582876     36.05376   -1198.1777   -311982.36 
Loop time of 299.02 on 1 procs for 1000 steps with 14848 atoms

Performance: 0.289 ns/day, 83.061 hours/ns, 3.344 timesteps/s
100.0% CPU use with 1 MPI tasks x no OpenMP threads

MPI task timing breakdown:
Section |  min time  |  avg time  |  max time  |%varavg| %total
---------------------------------------------------------------
Pair    | 238.3      | 238.3      | 238.3      |   0.0 | 79.69
Bond    | 0.00021124 | 0.00021124 | 0.00021124 |   0.0 |  0.00
Kspace  | 11.051     | 11.051     | 11.051     |   0.0 |  3.70
Neigh   | 42.893     | 42.893     | 42.893     |   0.0 | 14.34
Comm    | 0.43312    | 0.43312    | 0.43312    |   0.0 |  0.14
Output  | 0.01058    | 0.01058    | 0.01058    |   0.0 |  0.00
Modify  | 6.2274     | 6.2274     | 6.2274     |   0.0 |  2.08
Other   |            | 0.109      |            |       |  0.04

Nlocal:    14848 ave 14848 max 14848 min
Histogram: 1 0 0 0 0 0 0 0 0 0
Nghost:    46857 ave 46857 max 46857 min
Histogram: 1 0 0 0 0 0 0 0 0 0
Neighs:    1.00926e+07 ave 1.00926e+07 max 1.00926e+07 min
Histogram: 1 0 0 0 0 0 0 0 0 0

Total # of neighbors = 10092573
Ave neighs/atom = 679.726
Ave special neighs/atom = 0
Neighbor list builds = 155
Dangerous builds = 0
PPPM initialization ...
  using 12-bit tables for long-range coulomb (../kspace.cpp:321)
  G vector (1/distance) = 0.202622
  grid = 36 50 24
  stencil order = 5
  estimated absolute RMS force accuracy = 0.000996578
  estimated relative force accuracy = 6.92085e-05
  using double precision FFTs
  3d grid and FFT values/proc = 65395 43200
Setting up Verlet run ...
  Unit style    : metal
  Current step  : 0
  Time step     : 0.001
Per MPI rank memory allocation (min/avg/max) = 152.6 | 152.6 | 152.6 Mbytes
Step Temp Volume Cella Cellb Cellc CellGamma Pxx Pyy Pzz Pxy Pxz Pyz Lx Ly Lz Press PotEng 
       0     195.6457    163053.81     72.26448     72.26448     36.05376          120    16253.648     17002.19   -36818.161     1848.674    -2710.758   -34.100365     72.26448    62.582876     36.05376   -1187.4408   -311982.18 
      10    193.91523    163056.76    72.264915    72.264916    36.053977          120    16450.261    17266.541   -36461.655    1286.6152   -3063.0396    -67.34596    72.264915    62.583253    36.053977   -914.95121    -311982.7 
      20    193.91441    163058.87    72.265227    72.265227    36.054132          120    16463.404    17753.173   -35969.053    711.05143   -3199.9922     478.1267    72.265227    62.583523    36.054132   -584.15894   -311986.09 
      30    192.42957    163060.46    72.265461    72.265462    36.054249          120    16833.172    18166.833   -34834.613    521.19737   -3001.3811      708.445    72.265461    62.583726    36.054249    55.130464   -311986.13 
      40    192.41824    163061.97    72.265684    72.265685    36.054361          120    16985.455    18246.753   -35017.905    465.12899   -2899.7661    276.15789    72.265684    62.583919    36.054361    71.434044   -311988.58 
      50    193.03645    163063.41    72.265898    72.265898    36.054467          120    16657.019    17740.914   -36517.113    1254.6038   -2584.3071   -92.968552    72.265898    62.584104    36.054467   -706.39334   -311992.15 
      60    191.92459    163064.27    72.266025    72.266025    36.054531          120    16299.286     17275.11    -37268.25    1661.1927   -2174.7787   -658.05421    72.266025    62.584214    36.054531   -1231.2845   -311992.06 
      70    189.55467    163064.16    72.266009    72.266009    36.054523          120     15662.43    16903.805   -37089.299    1539.4795   -1781.2761   -843.87239    72.266009      62.5842    36.054523    -1507.688   -311989.26 
      80    190.88257    163062.93    72.265826    72.265827    36.054432          120    15726.563    16964.712   -37478.083    1321.9587   -2139.5668   -665.23998    72.265826    62.584042    36.054432   -1595.6027   -311993.32 
      90    192.75373    163060.57    72.265478    72.265478    36.054258          120     15528.75    17726.208   -36801.055    1194.2596   -2601.0134   -62.495071    72.265478     62.58374    36.054258   -1182.0326   -311998.21 
     100    191.03029    163057.43    72.265015    72.265015    36.054027          120    15604.066    18706.969   -36171.436    1194.6682   -2610.0003    388.83301    72.265015    62.583339    36.054027   -620.13387   -311994.86 
     110    190.78764    163053.96    72.264501    72.264501     36.05377          120    16230.335    18323.704   -35742.754    1318.6893   -2535.7755    348.29973    72.264501    62.582894     36.05377   -396.23806   -311994.73 
     120      189.971    163050.32    72.263964    72.263965    36.053503          120      16159.4    18011.133   -35236.812    1502.8489   -2558.4767    97.151457    72.263964    62.582429    36.053503    -355.4264   -311993.91 
     130    189.22518    163046.57    72.263409     72.26341    36.053226          120    15807.666    17938.866   -35509.465    1390.7716   -2586.0408    15.705739    72.263409    62.581949    36.053226    -587.6444    -311992.1 
     140    190.39805    163042.55    72.262816    72.262816     36.05293          120    16155.644    18051.641   -36336.572    1424.1729   -2961.4467    20.513027    72.262816    62.581435     36.05293   -709.76236   -311994.01 
     150    192.62326    163038.19    72.262171    72.262172    36.052608          120    16491.172    17813.639   -36380.746     1199.255   -2706.6456     -156.911    72.262171    62.580877    36.052608    -691.9782   -311997.17 
     160    193.13097    163033.49    72.261478    72.261478    36.052262          120    16889.253    17646.262   -36496.956     1329.796   -2690.1681   -763.43268    72.261478    62.580276    36.052262   -653.81364   -311996.41 
     170    192.39598     163028.5     72.26074    72.260741    36.051894          120    17458.392     17313.66    -37044.14    1318.4113   -2874.7993   -1098.9192     72.26074    62.579637    36.051894   -757.36265   -311993.46 
     180    193.58101    163023.16    72.259952    72.259952    36.051501          120    17356.375    16964.028   -36508.677    1330.5131   -2414.4867   -711.09688    72.259952    62.578954    36.051501   -729.42451   -311993.84 
     190    194.56726    163017.51    72.259116    72.259117    36.051084          120    17216.276    17005.124   -36168.434    1401.3573   -2487.1314   -134.90446    72.259116    62.578231    36.051084   -649.01139    -311994.2 
     200    194.63272    163011.62    72.258247    72.258247     36.05065          120    17219.507    16965.371   -35633.994     1353.705   -2483.5999   -574.39669    72.258247    62.577478     36.05065   -483.03879   -311991.36 
     210    196.09475    163005.63    72.257361    72.257362    36.050208          120    17197.967    16869.493   -35195.586    1512.8637   -2354.8467   -247.90037    72.257361    62.576711    36.050208   -376.04211   -311992.39 
     220    195.14985    162999.59    72.256469    72.256469    36.049763          120    16981.257    17038.627   -35694.196      1377.28   -1948.5472   -361.65464    72.256469    62.575938    36.049763   -558.10374   -311988.09 
     230    196.68299     162993.4    72.255554    72.255555    36.049307          120    16893.523    17015.156   -35660.724    1071.6611   -2150.2258   -875.27627    72.255554    62.575146    36.049307   -584.01485   -311987.85 
     240    197.98066    162987.02    72.254612    72.254612    36.048836          120    16996.269    17158.789   -36318.401    984.11499    -2464.195   -300.65911    72.254612     62.57433    36.048836   -721.11429   -311987.58 
     250    199.48763    162980.43    72.253637    72.253637     36.04835          120    17325.846    17780.365   -35792.659    1452.7348   -2057.4872   -924.44916    72.253637    62.573486     36.04835   -228.81642   -311987.92 
     260    199.13188    162973.94    72.252678    72.252678    36.047872          120     17598.51    18279.387   -35184.269    1376.5642   -1736.1236   -1404.9319    72.252678    62.572655    36.047872    231.20926   -311984.31 
     270    199.22303    162967.85    72.251778    72.251778    36.047423          120     17219.92    18052.158   -35168.442    1244.0188   -1891.0722   -900.66185    72.251778    62.571876    36.047423    34.545188   -311981.91 
     280    201.27406    162962.08    72.250925    72.250926    36.046997          120    17544.414    18350.172   -34996.248    1022.9503   -1780.9845   -134.84228    72.250925    62.571137    36.046997    299.44618   -311983.02 
     290    201.02635    162956.84    72.250151    72.250151    36.046611          120    18464.129    19075.415    -34252.49    816.82831   -2277.7548    678.64047    72.250151    62.570467    36.046611    1095.6845   -311979.25 
     300    202.09499    162952.61    72.249525    72.249526    36.046299          120    18813.134    18920.359   -34086.952    1073.3357   -2471.3165    1023.6354    72.249525    62.569925    36.046299    1215.5136   -311978.68 
     310    205.55591    162949.47    72.249061    72.249062    36.046067          120    18706.093    18430.547    -33812.72    1474.2161   -2473.8892    541.54566    72.249061    62.569523    36.046067    1107.9734   -311982.75 
     320    205.22286    162947.27    72.248737    72.248737    36.045905          120    18589.016    18055.017   -34759.569    1504.2808   -2250.6118    371.04628    72.248737    62.569242    36.045905    628.15477    -311980.2 
     330    205.95891    162945.69    72.248503    72.248504    36.045789          120    19063.097    18209.069   -34847.374    1455.4025   -1603.1553    165.61593    72.248503     62.56904    36.045789    808.26418   -311979.14 
     340    206.96832    162944.79    72.248371    72.248371    36.045723          120    19351.265    18746.694   -34661.128    1144.1911   -1379.0553   -550.88985    72.248371    62.568925    36.045723    1145.6102   -311978.93 
     350    205.87945    162944.79     72.24837    72.248371    36.045723          120    19529.747    18940.644    -34306.79    1204.9898   -1137.0567   -301.60043     72.24837    62.568925    36.045723    1387.8669   -311974.97 
     360    208.56562    162945.82    72.248523    72.248523    36.045799          120    19732.648    18566.711     -34511.3    1717.3512   -1779.4712   -389.16366    72.248523    62.569057    36.045799    1262.6863   -311978.72 
     370    209.94681    162947.77     72.24881    72.248811    36.045942          120    18771.239    18557.644   -34336.511    1561.9041   -1577.4618   -489.81107     72.24881    62.569306    36.045942    997.45724   -311980.17 
     380    206.73085    162950.41    72.249201    72.249202    36.046137          120    18952.736    18157.998   -33931.608    1839.7821   -2118.4695   -497.49715    72.249201    62.569645    36.046137    1059.7086   -311973.24 
     390    207.21487    162953.75    72.249695    72.249695    36.046383          120    19430.685    18528.623   -33925.468    1754.9416    -1879.874   -132.25967    72.249695    62.570072    36.046383    1344.6134   -311973.89 
     400    209.82031       162958    72.250322    72.250322    36.046696          120    19649.672    19162.913   -33331.842    1426.0771   -1757.4753    619.02623    72.250322    62.570615    36.046696    1826.9143   -311978.54 
     410    209.22501     162963.4     72.25112    72.251121    36.047094          120    19516.322    18835.969    -34301.16    1374.8779   -1899.0995    793.70408     72.25112    62.571306    36.047094    1350.3768   -311977.44 
     420    208.78523    162969.64    72.252043    72.252044    36.047555          120    18960.323    18757.167   -34260.494    2066.6829   -1835.8093    267.57992    72.252043    62.572106    36.047555    1152.3319   -311977.54 
     430    208.25044    162976.51    72.253058    72.253059    36.048062          120    18431.808    18581.484    -34546.02     2350.682   -2029.2039   -52.740214    72.253058    62.572985    36.048062    822.42383   -311977.77 
     440     208.7156    162983.74    72.254126    72.254127    36.048594          120    18084.492    18184.795   -34830.244     1947.389   -2437.1345     41.36956    72.254126    62.573909    36.048594    479.68094   -311980.09 
     450    207.16344    162991.07    72.255209     72.25521    36.049134          120    18110.681    18125.447    -34742.92    1902.4014   -2414.7754    22.491605    72.255209    62.574847    36.049134    497.73612   -311978.78 
     460    205.86656    162998.48    72.256305    72.256306    36.049681          120    18056.516    18621.343   -34897.451    1828.1486   -2132.0464   -13.223542    72.256305    62.575797    36.049681    593.46915   -311978.29 
     470    205.29635    163006.04    72.257422    72.257422    36.050239          120    18337.216    18067.048   -34826.437    1362.9242   -2212.2953   -226.87938    72.257422    62.576764    36.050239    525.94216   -311979.03 
     480    205.35297    163013.73    72.258557    72.258558    36.050805          120    18684.697    18170.308   -34809.544    1111.5435   -2119.4987   -433.18186    72.258557    62.577747    36.050805    681.82034   -311981.49 
     490    204.93847    163021.62    72.259724    72.259724    36.051387          120    18724.659    17798.217   -34681.472    1181.7828   -1709.7764   -270.17028    72.259724    62.578757    36.051387    613.80143   -311982.98 
     500    208.44156    163029.64    72.260909    72.260909    36.051978          120    18382.739    17426.794   -35457.289     940.9248   -1596.6191    740.05978    72.260909    62.579783    36.051978     117.4144    -311992.4 
     510    204.32171    163037.47    72.262065    72.262066    36.052555          120    17940.315    17482.446   -35994.569    1495.5328   -2229.2946    828.42303    72.262065    62.580785    36.052555   -190.60277   -311987.52 
     520    203.74555    163044.83    72.263153    72.263154    36.053098          120    17255.954    17380.949   -36502.905    1693.7223   -2667.3756    304.77156    72.263153    62.581727    36.053098   -622.00044   -311989.61 
     530    202.70511    163051.47    72.264134    72.264134    36.053587          120    16879.519     17953.78   -36782.056    1492.0969   -2889.6356    94.604713    72.264134    62.582576    36.053587   -649.58576   -311990.88 
     540     201.7387    163057.36    72.265004    72.265004    36.054021          120    16621.977    18143.375    -36269.75    1163.3799   -2961.0041    351.07811    72.265004     62.58333    36.054021   -501.46579   -311992.21 
     550    200.75557    163062.67    72.265789    72.265789    36.054413          120    16587.329    18070.012   -34847.382    1438.0122   -2955.3042    234.12896    72.265789     62.58401    36.054413   -63.347377      -311993 
     560     199.7275     163067.7    72.266532    72.266532    36.054783          120    16646.788    17505.465   -34493.172    1171.1096    -2650.943    -350.7247    72.266532    62.584653    36.054783   -113.63977   -311994.84 
     570    199.96108    163072.43    72.267231    72.267231    36.055132          120    16685.559    17348.059    -34942.52     1080.634   -2486.5525   -241.24757    72.267231    62.585258    36.055132   -302.96759    -311997.8 
     580    199.13715    163076.76     72.26787    72.267871    36.055451          120    16736.001    17351.206   -35279.626    1544.5866   -1739.9219   -107.81591     72.26787    62.585812    36.055451   -397.47326    -311999.3 
     590    198.52387    163080.62     72.26844    72.268441    36.055736          120    16774.275    17186.679    -35448.92    1443.0782   -1791.4622   -81.730699     72.26844    62.586306    36.055736   -495.98866   -312001.04 
     600     197.8596    163083.97    72.268935    72.268936    36.055983          120    17010.512    17046.605   -35309.436    1158.1203   -2128.1948    672.18807    72.268935    62.586735    36.055983   -417.43953   -312002.26 
     610    197.14035    163086.88    72.269364    72.269365    36.056197          120    17410.026    16800.149   -35404.247    1500.2382   -2259.7581     331.0231    72.269364    62.587106    36.056197   -398.02393   -312003.67 
     620    197.36021    163089.36    72.269731    72.269732     36.05638          120    17799.129    16186.356   -35130.982    1438.9094    -2886.049     185.6629    72.269731    62.587424     36.05638   -381.83264   -312006.27 
     630    197.63348    163091.48    72.270044    72.270044    36.056536          120    17989.588     16404.36   -34410.736    1293.2687   -2741.2615    249.30286    72.270044    62.587694    36.056536   -5.5961271   -312009.63 
     640    197.10632     163093.5    72.270342    72.270343    36.056685          120    17970.078    16776.083   -34252.023      1497.11   -3371.7334    -10.71673    72.270342    62.587953    36.056685    164.71256   -312010.91 
     650    196.30021    163095.53    72.270643    72.270643    36.056835          120    17354.978    16738.615   -34920.975     1067.274   -2636.7504   -3.8471434    72.270643    62.588213    36.056835   -275.79374   -312011.62 
     660    196.75639    163097.29    72.270902    72.270903    36.056964          120     17355.15    16594.108   -35888.219    1132.8886   -2010.8604   -438.98078    72.270902    62.588438    36.056964   -646.32035   -312014.32 
     670    195.17011    163098.48    72.271078    72.271079    36.057052          120     17539.73    15840.473   -36479.567    1236.0014   -1701.8833   -588.07283    72.271078     62.58859    36.057052   -1033.1213   -312013.16 
     680    194.55207    163098.87    72.271135    72.271136     36.05708          120    17417.686    16075.101   -36548.081    1475.0014   -1433.8315   -350.91253    72.271135     62.58864     36.05708    -1018.431   -312013.38 
     690    194.72645    163098.49    72.271079    72.271079    36.057052          120    17327.915    16702.077   -36025.463    1582.3887   -1633.1752    209.17129    72.271079    62.588591    36.057052   -665.15722    -312015.1 
     700    193.17033    163097.61    72.270949     72.27095    36.056988          120    17532.682    17301.533   -35447.767    1712.4773   -1720.8393    390.35556    72.270949    62.588479    36.056988   -204.51718   -312013.49 
     710    194.48177    163096.61    72.270802    72.270803    36.056914          120    17575.654    17592.422   -34189.903    1615.3706   -2221.5842    577.57853    72.270802    62.588352    36.056914    326.05772   -312017.26 
     720     197.0831    163095.82    72.270686    72.270686    36.056856          120     16980.69    17166.487   -34704.884    1426.7256   -2065.2473    135.71576    72.270686     62.58825    36.056856   -185.90241   -312022.85 
     730    193.44547    163094.95    72.270557    72.270557    36.056792          120    16942.461    17014.872   -35350.682    1168.8611   -2673.1099   -462.50055    72.270557    62.588139    36.056792   -464.44966   -312016.55 
     740    193.38784    163093.79    72.270385    72.270385    36.056706          120    17184.714    17346.329   -35477.006    1244.4442   -3138.1217   -596.37706    72.270385     62.58799    36.056706   -315.32121   -312016.88 
     750    194.05085    163092.41    72.270181    72.270182    36.056604          120    17070.319    17618.036    -35443.65    1077.1665   -2868.8144   -1170.2906    72.270181    62.587813    36.056604   -251.76488   -312018.47 
     760    194.50928    163090.88    72.269956    72.269956    36.056492          120    17179.038    17455.128   -35223.311    1466.5422   -2112.1421   -1343.5437    72.269956    62.587618    36.056492   -196.38162   -312018.76 
     770    193.00084    163089.28    72.269718    72.269719    36.056373          120    17450.269    17808.454    -35326.32    1647.0973   -1910.2936   -1268.2276    72.269718    62.587413    36.056373   -22.532305   -312015.88 
     780    194.05434    163087.71    72.269487    72.269488    36.056258          120    17598.034    18274.736   -35527.664    1413.6288   -1997.8391    -748.9392    72.269487    62.587213    36.056258    115.03545   -312017.18 
     790    193.05849    163086.32    72.269282    72.269283    36.056156          120    18122.624    18011.554   -34694.676    1682.3502   -2329.3442   -546.09422    72.269282    62.587035    36.056156    479.83386   -312014.32 
     800    195.39401     163085.3    72.269131    72.269131     36.05608          120    17929.359    17767.138   -34834.285    1344.0628   -2659.4551   -726.12901    72.269131    62.586904     36.05608    287.40408   -312018.07 
     810    196.24981    163084.52    72.269016    72.269017    36.056023          120    17520.729     17786.14   -35059.069    1165.8293   -3104.1396    108.85061    72.269016    62.586805    36.056023     82.59981   -312018.17 
     820    196.60089    163083.87     72.26892     72.26892    36.055975          120    17927.617    17877.175   -34769.124    1473.1842   -2915.7313     -179.236     72.26892    62.586721    36.055975     345.2226   -312017.23 
     830    195.72847    163083.49    72.268864    72.268865    36.055947          120    18135.366    18193.945    -34608.87    1666.2426   -2514.9641   -647.26481    72.268864    62.586673    36.055947    573.48026   -312014.11 
     840    196.55624    163083.59    72.268879    72.268879    36.055954          120    18407.473    18754.019   -34331.621    1523.9151   -2663.8348   -553.02254    72.268879    62.586685    36.055954    943.29003   -312014.39 
     850     197.9711    163084.36    72.268992    72.268992    36.056011          120     18097.71    18867.389    -34964.58    1300.1737   -2575.9041   -368.96525    72.268992    62.586783    36.056011    666.83991   -312014.83 
     860    200.78344     163085.6    72.269176    72.269176    36.056103          120    17518.001    18562.864   -35527.505    954.93218   -2779.5045   -620.07964    72.269176    62.586943    36.056103    184.45334   -312018.45 
     870    198.42054    163086.96    72.269376    72.269377    36.056203          120    17270.909    17842.887   -35555.478    889.74758    -2202.931   -609.30739    72.269376    62.587116    36.056203   -147.22768   -312012.53 
     880    198.27972    163088.18    72.269556    72.269556    36.056292          120    17864.254    17105.541   -35151.201    884.67852   -2084.6043   -530.02782    72.269556    62.587272    36.056292   -60.468733   -312010.43 
     890    198.71838    163089.35    72.269729    72.269729    36.056379          120    18821.691    17571.347   -34742.047    481.43568    -2478.704   -494.94027    72.269729    62.587422    36.056379    550.33039   -312009.49 
     900    199.48416    163090.84    72.269949    72.269949    36.056488          120    18710.073    17325.569   -34659.155    817.87303   -2339.8832   -235.97314    72.269949    62.587612    36.056488    458.82896   -312009.12 
     910    200.07491    163092.63    72.270214    72.270214    36.056621          120    18258.577    17075.594   -34031.242    1215.6791   -2369.4282   -612.04354    72.270214    62.587842    36.056621    434.31001   -312008.34 
     920    202.06252    163094.71    72.270522    72.270522    36.056774          120    18090.512    17497.317   -33707.461    1014.0885   -2203.3216   -932.10176    72.270522    62.588108    36.056774     626.7894   -312009.93 
     930    202.75778    163097.21    72.270891    72.270891    36.056958          120    18287.358    17312.501   -33638.725    1325.4969   -2712.6793   -697.36461    72.270891    62.588428    36.056958    653.71117   -312008.95 
     940    202.74985    163100.11    72.271318    72.271319    36.057172          120    18570.096    17310.009   -34850.055    1745.3869   -3159.5555   -407.79723    72.271318    62.588798    36.057172    343.34975    -312007.1 
     950    200.96729    163103.18    72.271772    72.271773    36.057398          120    18551.586    17702.794    -35516.29    1507.7205   -3158.7225   -261.26183    72.271772    62.589191    36.057398    246.03007   -312001.92 
     960    203.15587    163106.33    72.272237    72.272238     36.05763          120    18084.658    17339.729   -35245.417    1187.8368   -3395.8172     -462.531    72.272237    62.589594     36.05763    59.656433   -312004.36 
     970    201.86682    163109.43    72.272695    72.272695    36.057858          120    17900.215    17170.909   -34917.133    1263.1186   -3148.6079   -510.09461    72.272695     62.58999    36.057858     51.33009   -312000.84 
     980    202.03338    163112.46    72.273143    72.273144    36.058082          120    17958.938    16988.047   -34523.853    1162.4038   -3132.7583   -596.98459    72.273143    62.590379    36.058082    141.04395   -312000.08 
     990    204.24103    163115.54    72.273597    72.273598    36.058309          120    17921.462    17530.887   -33901.133    1266.6204   -3335.0757   -646.33123    72.273597    62.590772    36.058309    517.07186   -312003.04 
    1000    205.72715     163118.9    72.274094    72.274095    36.058556          120    18402.049    17693.668   -33904.022    997.79419   -3063.7526   -297.25258    72.274094    62.591202    36.058556    730.56484   -312004.74 
    1010    205.56836    163122.69    72.274653    72.274654    36.058836          120    18031.184    17571.014   -34042.717    666.94887   -2435.6331   -501.60889    72.274653    62.591687    36.058836    519.82699   -312003.07 
    1020    204.25364    163126.72    72.275249     72.27525    36.059133          120    17364.827    17726.427   -35041.175    1083.5167   -2282.7541   -536.05723    72.275249    62.592203    36.059133    16.692864   -312000.01 
    1030    205.69094    163130.64    72.275829    72.275829    36.059422          120    17324.228    17780.768   -36003.353    1231.2083   -2013.8556   -653.07739    72.275829    62.592704    36.059422    -299.4523    -312002.4 
    1040    206.11611    163134.22    72.276357    72.276357    36.059685          120    17127.597    17316.231   -35724.351    1288.8224   -2140.1012   -750.01405    72.276357    62.593162    36.059685   -426.84116   -312002.55 
    1050    205.91604     163137.4    72.276826    72.276826    36.059919          120    17438.857    17539.774   -35649.821    967.84842   -2919.4026   -8.6245997    72.276826    62.593568    36.059919    -223.7297   -312001.53 
    1060    204.61833    163140.29    72.277253    72.277253    36.060132          120    17159.614    18378.473   -35796.703    751.17764   -2767.2078     338.4714    72.277253    62.593938    36.060132   -86.205619   -311999.02 
    1070     205.3782    163143.02    72.277656    72.277657    36.060334          120    17244.537    18476.426   -35243.269    1023.5798   -3365.7794   -362.15866    72.277656    62.594287    36.060334    159.23125   -312000.44 
    1080    204.68388    163145.76    72.278061    72.278061    36.060535          120    16966.693    18606.225   -34622.711    1618.0591   -3787.5394   -358.36295    72.278061    62.594637    36.060535    316.73537   -311999.97 
    1090    205.64374    163148.68    72.278492    72.278492     36.06075          120    17908.023    18900.449   -34697.055    1879.5424   -3457.8894   -476.67584    72.278492     62.59501     36.06075    703.80556   -312002.88 
    1100    204.78267    163152.03    72.278987    72.278988    36.060998          120    18215.393    18528.978   -34326.642    1543.7265   -3124.3055    15.939234    72.278987     62.59544    36.060998    805.90943   -312002.25 
    1110    204.97804    163155.84    72.279549     72.27955    36.061278          120    17488.137    18236.992   -35432.676    1243.5671   -2230.4122    623.39728    72.279549    62.595926    36.061278    97.484292   -312003.56 
    1120    206.72363    163159.64     72.28011     72.28011    36.061558          120    17563.892    18172.831   -36290.809    1348.0119   -1553.9862    165.79101     72.28011    62.596412    36.061558   -184.69528   -312008.27 
    1130     203.5065    163163.23    72.280641    72.280642    36.061823          120    18320.259    17933.718   -34998.774    835.22161   -1732.4927   -847.92042    72.280641    62.596872    36.061823    418.40105   -312003.99 
    1140    204.00005    163166.99    72.281195    72.281196    36.062099          120    18397.276    18132.993   -35061.183    581.62957   -2013.9806   -667.51103    72.281195    62.597352    36.062099    489.69532   -312006.91 
    1150    203.89331    163170.98    72.281784    72.281785    36.062393          120    17905.226    17871.956   -35097.166    775.89888   -2195.5397     16.44667    72.281784    62.597862    36.062393    226.67211    -312008.5 
    1160    202.11802    163175.06    72.282387    72.282387    36.062694          120    18511.189    18041.233   -35022.313    963.05013   -2524.5239   -77.068837    72.282387    62.598384    36.062694    510.03643   -312007.11 
    1170    203.10402    163179.39    72.283027    72.283027    36.063013          120    18035.118    18175.958   -34136.137    1085.8612   -2906.1896   -30.500781    72.283027    62.598938    36.063013    691.64626   -312010.71 
    1180    200.62673    163184.09    72.283721    72.283722     36.06336          120    17277.877     18283.35   -34354.044    976.28332   -2576.8904   -424.25618    72.283721    62.599539     36.06336     402.3943   -312008.01 
    1190    201.38588    163188.94    72.284437    72.284438    36.063717          120    16878.831    18059.643   -35147.568    913.73702   -2420.8798   -845.12167    72.284437    62.600159    36.063717   -69.698078   -312011.61 
    1200    199.45588    163193.59    72.285124    72.285124    36.064059          120    17295.003    17781.269   -36240.585    406.15029    -2485.472   -729.87641    72.285124    62.600754    36.064059   -388.10448   -312009.83 
    1210    200.19694    163197.81    72.285747    72.285748     36.06437          120     17316.18    17425.649   -35835.778    734.02047   -2515.6609   -359.71251    72.285747    62.601294     36.06437   -364.64961   -312013.62 
    1220    200.36937    163201.64    72.286312    72.286312    36.064652          120    17948.372    17488.249   -35593.951    1086.3179   -2856.6172   -204.32437    72.286312    62.601783    36.064652   -52.443201   -312015.58 
    1230    199.41342    163205.29     72.28685    72.286851    36.064921          120    17545.083    17276.851   -34958.775    1156.9357   -2956.6817    -72.37195     72.28685    62.602249    36.064921   -45.613381   -312016.23 
    1240    198.51744    163208.76    72.287363    72.287364    36.065177          120    16857.668    17158.477   -35228.559    936.23169   -3096.3579   -230.93961    72.287363    62.602694    36.065177   -404.13809   -312016.64 
    1250    198.40325    163211.83    72.287816    72.287817    36.065403          120    16227.097    17293.803   -34916.583     722.1875    -3473.722   -460.87523    72.287816    62.603086    36.065403   -465.22796   -312018.37 
    1260     198.0859    163214.48    72.288208    72.288208    36.065598          120    16710.133    17651.698   -34607.296    949.14701   -3748.2766    99.850663    72.288208    62.603425    36.065598   -81.821382   -312019.47 
    1270    198.27137       163217     72.28858     72.28858    36.065784          120    17055.725    18228.626   -34109.158    1026.0354   -3821.7633    184.30656     72.28858    62.603747    36.065784    391.73106   -312021.99 
    1280    196.54849    163219.72    72.288981    72.288981    36.065984          120    16894.354    18286.793   -33925.459    913.10141   -3500.2941    55.713357    72.288981    62.604094    36.065984    418.56269   -312020.35 
    1290    196.43573    163222.65    72.289414    72.289414      36.0662          120    16828.992    17906.832   -35006.242    606.38634   -2977.1056    199.77366    72.289414    62.604469      36.0662   -90.139288    -312021.8 
    1300    196.67321    163225.39    72.289818    72.289818    36.066401          120    15430.699    17614.508   -35646.515    699.98746   -3042.0347    438.79397    72.289818    62.604819    36.066401   -867.10271   -312023.78 
    1310    195.93717    163227.42    72.290118    72.290118    36.066551          120    15223.226    17379.354   -35674.825    987.49711   -3048.4287    617.04283    72.290118    62.605079    36.066551   -1024.0815   -312023.14 
    1320    194.38063    163228.66    72.290301    72.290302    36.066642          120     16260.54    17302.864   -34959.197    711.21908   -2964.0192     156.2326    72.290301    62.605238    36.066642   -465.26453   -312021.81 
    1330    192.96054    163229.52    72.290428    72.290428    36.066706          120    17051.641    18040.067   -34514.067    942.47394   -3300.3794   -150.33235    72.290428    62.605348    36.066706    192.54709   -312019.33 
    1340    194.80483    163230.45    72.290565    72.290566    36.066774          120    17160.297    18131.367   -34348.241    1171.3186   -2962.1383   -283.19176    72.290565    62.605467    36.066774    314.47423   -312023.94 
    1350    196.78572    163231.59    72.290733    72.290734    36.066858          120    17078.676    18165.455   -33956.244    838.08672   -2677.6722   -84.370557    72.290733    62.605612    36.066858     429.2955   -312028.38 
    1360    194.18459    163233.01    72.290943    72.290943    36.066962          120    17504.999    18283.494    -34743.34    709.04853   -2938.6486    141.35991    72.290943    62.605793    36.066962    348.38398   -312023.45 
    1370    196.06823    163234.64    72.291184    72.291185    36.067083          120    17513.821    17954.576   -35323.672    1104.4057   -3246.2918   -150.64351    72.291184    62.606002    36.067083    48.241627    -312027.5 
    1380    196.00566    163236.26    72.291422    72.291423    36.067202          120    16980.843    17447.799   -35837.733    1224.6011    -3184.257   -135.51339    72.291422    62.606209    36.067202   -469.69699    -312027.4 
    1390    194.14789    163237.49    72.291604    72.291605    36.067293          120     16363.98    17195.626     -35631.3    1047.6591   -2715.7789   -137.60692    72.291604    62.606366    36.067293    -690.5647   -312023.57 
    1400    195.82788    163238.14      72.2917    72.291701    36.067341          120    16097.164    17006.849   -35754.385     966.4172   -2059.2649    383.22263      72.2917     62.60645    36.067341   -883.45741   -312026.36 
    1410    194.91001    163238.11    72.291696    72.291696    36.067338          120    16283.026    17051.398   -35641.839    544.76292   -2511.1984    1044.6029    72.291696    62.606446    36.067338   -769.13847    -312024.2 
    1420    195.63207    163237.48    72.291603    72.291604    36.067292          120      16824.8    16895.289   -35676.334    502.81891   -2663.3936    1081.0597    72.291603    62.606365    36.067292   -652.08135   -312025.35 
    1430    193.80892    163236.39    72.291443    72.291443    36.067212          120    16465.466    17599.788   -34888.048    570.58268   -2645.5286    640.21775    72.291443    62.606227    36.067212   -274.26447    -312020.5 
    1440    195.65491    163235.15    72.291259    72.291259     36.06712          120    16731.975    18297.737   -34321.183    872.18469   -2598.8519   -360.84648    72.291259    62.606067     36.06712    236.17639   -312022.43 
    1450    197.30253    163234.08      72.2911    72.291101    36.067041          120    17695.772     18352.92   -35376.014    846.34238   -2790.1715    -54.97957      72.2911     62.60593    36.067041    224.22574   -312024.39 
    1460    198.18975    163233.21    72.290973    72.290974    36.066978          120    17909.189    18582.633   -35809.634    669.93742   -2996.1646    141.84184    72.290973     62.60582    36.066978    227.39606   -312024.55 
    1470    198.28997    163232.55    72.290875    72.290875    36.066929          120    17744.918    18422.707   -35403.562    977.61563   -2708.6489     128.9592    72.290875    62.605735    36.066929    254.68772   -312023.73 
    1480    197.37925    163232.11    72.290811    72.290811    36.066897          120    18221.243    18492.501   -35426.447    1191.0096   -2393.2848    21.346905    72.290811    62.605679    36.066897      429.099   -312020.62 
    1490    197.23182    163231.96    72.290789    72.290789    36.066886          120    18012.807    18187.728   -36308.412    1022.3178    -2185.328   -284.76603    72.290789     62.60566    36.066886   -35.958917   -312018.66 
    1500    198.33825    163231.81    72.290766    72.290766    36.066874          120    17552.507    17398.718   -36291.151    675.55895    -2461.719     383.2793    72.290766     62.60564    36.066874   -446.64203   -312018.94 
    1510    198.82859    163231.35    72.290697    72.290698     36.06684          120    17940.023    17354.356   -36102.507    726.06424   -2321.6661    547.86577    72.290697    62.605581     36.06684   -269.37584   -312017.59 
    1520    200.37525    163230.69    72.290601    72.290602    36.066792          120    18631.114    17096.032   -35532.525    554.87926     -2500.28    755.56043    72.290601    62.605498    36.066792    64.873654   -312018.92 
    1530    198.87589     163230.1    72.290513    72.290514    36.066748          120    18759.965    17414.614   -35534.265    533.16589   -2887.2576     898.4691    72.290513    62.605421    36.066748    213.43795    -312014.4 
    1540    200.65746    163229.67     72.29045     72.29045    36.066717          120    18503.409     17686.43   -35517.397    822.77083   -2109.1641    276.23735     72.29045    62.605367    36.066717    224.14728   -312016.02 
    1550    200.97261    163229.42    72.290413    72.290414    36.066698          120    18081.125    17916.556   -35324.604    811.64481   -2138.1287    17.742101    72.290413    62.605335    36.066698    224.35905      -312015 
    1560    201.85766    163229.35    72.290404    72.290404    36.066694          120    17944.425    18256.433    -35432.85    803.45176   -2220.4289   -117.79896    72.290404    62.605327    36.066694    256.00252   -312015.01 
    1570    203.86346     163229.5    72.290424    72.290425    36.066704          120    18168.477    18159.737    -35291.43    993.54537    -2489.849    316.75257    72.290424    62.605345    36.066704    345.59486   -312016.69 
    1580    202.80545     163229.9    72.290484    72.290485    36.066734          120    18453.159    17577.343   -34814.914    1303.7802   -2776.6163    358.43674    72.290484    62.605396    36.066734    405.19599   -312013.05 
    1590     203.4516     163230.6    72.290587    72.290588    36.066785          120    17830.581    17797.532   -34800.145    1077.0599   -2822.4657   -152.17748    72.290587    62.605486    36.066785     275.9892   -312013.09 
    1600    202.77517    163231.48    72.290717    72.290718     36.06685          120    17530.099    17960.161   -35191.438    755.20297   -2857.4287   -578.25942    72.290717    62.605598     36.06685    99.607394   -312010.63 
    1610    204.92362    163232.43    72.290857    72.290858     36.06692          120    17480.319    17985.646    -35067.48    1357.8027   -2450.9669   -571.10442    72.290857    62.605719     36.06692    132.82858   -312013.46 
    1620    205.06699    163233.42    72.291003    72.291004    36.066993          120    16464.293     18549.11    -35321.14      1431.82   -2510.8391    77.035464    72.291003    62.605846    36.066993   -102.57907   -312012.68 
    1630    203.22278    163234.35    72.291141    72.291141    36.067061          120    16595.095    19003.241    -34628.86    1287.8268   -3093.0959    563.41907    72.291141    62.605965    36.067061    323.15874    -312008.6 
    1640    204.81235    163235.52    72.291314    72.291315    36.067148          120    17822.907      18841.1   -33898.057    1156.1541   -3457.0275   -436.87325    72.291314    62.606115    36.067148    921.98335   -312011.16 
    1650    204.20521    163237.32     72.29158     72.29158     36.06728          120    18099.468    18588.604   -34594.747    638.30773   -3606.4856    -1040.554     72.29158    62.606345     36.06728    697.77525   -312009.62 
    1660    204.66685    163239.59    72.291915    72.291915    36.067448          120    17363.824    18383.358   -34860.783    236.15167   -4015.5389   -148.25627    72.291915    62.606635    36.067448    295.46612   -312010.29 
    1670    202.61495    163242.07     72.29228    72.292281     36.06763          120    17430.902    18246.313   -34520.249    318.96715   -3645.1272    187.49143     72.29228    62.606952     36.06763    385.65522   -312006.44 
    1680    205.13545    163244.73    72.292674    72.292675    36.067826          120    17221.843    18360.814   -35062.174    717.65202   -3623.3791   -8.2134891    72.292674    62.607293    36.067826    173.49432   -312011.03 
    1690    202.93187    163247.49    72.293081    72.293081    36.068029          120    17115.341    18716.718   -35282.704    950.14166   -3542.2128    51.603972    72.293081    62.607645    36.068029    183.11804   -312006.99 
    1700    204.17943    163250.31    72.293497    72.293497    36.068237          120    17293.861    18803.469   -35436.227    1275.7497   -3317.1101    402.24422    72.293497    62.608005    36.068237    220.36795   -312009.39 
    1710    203.56178     163253.2    72.293923    72.293924    36.068449          120    17433.033      17794.5    -35350.88    1132.3933   -3009.2224      165.404    72.293923    62.608375    36.068449   -41.115558   -312008.71 
    1720    204.81383    163255.97    72.294333    72.294333    36.068654          120    16827.652    17619.042   -35197.614    575.58624   -2940.4059    363.05639    72.294333    62.608729    36.068654   -250.30665   -312011.93 
    1730    204.28518    163258.51    72.294708    72.294708    36.068841          120    17282.112    17480.567   -34539.435    571.32242   -3008.0517   -186.71536    72.294708    62.609054    36.068841     74.41477   -312011.52 
    1740    204.30413    163261.02    72.295078    72.295079    36.069026          120    17511.944      17739.4   -34762.828     871.8791   -2360.2016   -162.28276    72.295078    62.609375    36.069026     162.8387   -312012.36 
    1750    204.43132    163263.56    72.295453    72.295453    36.069213          120    17049.665    17878.118    -35339.28    1143.5119   -2712.5289   -192.51899    72.295453    62.609699    36.069213   -137.16554   -312013.26 
    1760    203.50507    163265.93    72.295802    72.295803    36.069387          120    16797.801    17746.576   -35318.337    1340.1367    -2883.511   -205.47037    72.295802    62.610002    36.069387   -257.98652   -312012.98 
    1770    202.45907    163268.03    72.296113    72.296114    36.069542          120     17177.48    17443.606   -35294.247    1142.2647   -2592.5901    190.94424    72.296113    62.610271    36.069542   -224.38721   -312012.64 
    1780    202.40226    163269.91     72.29639     72.29639     36.06968          120    17387.592    17349.642   -35536.193      937.161   -2191.4704   -242.27341     72.29639    62.610511     36.06968      -266.32   -312013.92 
    1790    200.94133    163271.52    72.296628    72.296628    36.069799          120    17313.315     17426.89   -35796.719    617.00628   -2547.3104    91.017534    72.296628    62.610717    36.069799   -352.17129   -312012.84 
    1800    202.19218    163272.81    72.296819    72.296819    36.069894          120    16929.224    17354.482    -35779.64    698.63251   -2892.9327    331.03158    72.296819    62.610882    36.069894   -498.64468   -312017.52 
    1810    200.93341    163273.71    72.296951    72.296952     36.06996          120    16980.593    17505.619   -35626.101    955.73996   -2452.5361    477.64886    72.296951    62.610997     36.06996   -379.96309   -312016.33 
    1820    202.13918    163274.31     72.29704     72.29704    36.070004          120     17298.81    18141.036   -35522.161    781.87989   -3020.3984     561.0296     72.29704    62.611074    36.070004   -27.438222   -312020.37 
    1830    200.52481    163274.85    72.297119     72.29712    36.070044          120    17743.874    17876.904   -35292.743     771.5858   -3398.2211     283.5597    72.297119    62.611143    36.070044    109.34499    -312019.1 
    1840    199.88509    163275.43    72.297205    72.297206    36.070087          120    17603.024     17689.06   -35463.259    745.36717   -3235.3503    436.22871    72.297205    62.611217    36.070087   -57.058566   -312019.58 
    1850    200.72908    163275.99    72.297287    72.297288    36.070128          120     17296.69    18421.412   -35358.799    898.87275   -3204.0824    98.722819    72.297287    62.611288    36.070128    119.76776   -312022.61 
    1860    199.13899    163276.62     72.29738    72.297381    36.070174          120      17356.7    18547.675   -35057.965    889.37198   -3043.6544   -315.94438     72.29738    62.611369    36.070174    282.13666   -312021.25 
    1870    197.62471    163277.43    72.297501    72.297501    36.070234          120    17537.795    18443.404    -35648.84    917.65324   -3040.3081   -58.482663    72.297501    62.611473    36.070234    110.78643   -312020.27 
    1880    197.29024    163278.34    72.297634    72.297635    36.070301          120    18021.285    17892.981   -35491.083    996.09028   -2727.9417    96.228274    72.297634    62.611588    36.070301     141.0612   -312021.26 
    1890    197.49824    163279.34    72.297782    72.297783    36.070375          120    18303.381     17732.39   -34985.249      946.275   -2736.4923    853.90045    72.297782    62.611717    36.070375    350.17404   -312023.06 
    1900    197.96375     163280.6    72.297967    72.297968    36.070467          120    17954.158    17942.327   -34431.493    953.44254   -3039.9183    1207.6315    72.297967    62.611877    36.070467    488.33065   -312025.52 
    1910    196.08343    163282.16    72.298197    72.298198    36.070582          120    17856.371    17696.913   -35249.487    588.36772   -3188.5335    1490.1175    72.298197    62.612076    36.070582    101.26555   -312022.91 
    1920    197.03366    163283.73     72.29843    72.298431    36.070698          120    17564.282    17618.237   -36204.079    284.33796   -2712.7499    1339.9789     72.29843    62.612278    36.070698    -340.5201   -312025.99 
    1930    197.12985    163285.02    72.298621    72.298621    36.070793          120    16814.206    17759.063    -35965.32    214.39114   -2787.0296     929.8924    72.298621    62.612443    36.070793   -464.01686   -312027.08 
    1940    195.64401    163285.92    72.298753    72.298754    36.070859          120    16952.653    17381.567    -36221.37     437.2784   -3185.6801    743.21155    72.298753    62.612558    36.070859   -629.05023   -312025.54 
    1950    196.50477    163286.32    72.298812    72.298812    36.070888          120    17235.416    16813.617   -36307.822      664.247   -3592.3101   -35.835428    72.298812    62.612608    36.070888   -752.92972   -312027.86 
    1960    195.16353    163286.14    72.298785    72.298786    36.070875          120    17111.539    17037.658    -36333.51    1125.7725   -3587.2772   -145.41494    72.298785    62.612585    36.070875   -728.10461   -312025.65 
    1970    195.06392    163285.42     72.29868     72.29868    36.070823          120    16770.459    17823.674   -36228.645    611.28479   -3266.7168    195.51725     72.29868    62.612494    36.070823   -544.83711   -312026.06 
    1980    197.54303    163284.29    72.298512    72.298513    36.070739          120    16589.788    18225.104   -36373.862    300.17941   -2693.1287   -80.445634    72.298512    62.612349    36.070739   -519.65664   -312031.34 
    1990    195.83474    163282.79    72.298291    72.298292    36.070629          120    16903.412    18212.903   -35911.576     161.8072   -2497.7597   -595.78587    72.298291    62.612157    36.070629   -265.08704   -312028.46 
    2000     196.1596    163281.13    72.298045    72.298046    36.070506          120    16719.018    18177.154   -34898.248    246.04049   -3203.5558   -146.38274    72.298045    62.611945    36.070506  -0.69201863    -312028.9 
    2010     195.8416    163279.49    72.297804    72.297804    36.070385          120    17142.978    17984.807   -34893.571    502.44188   -2842.9425    624.15562    72.297804    62.611735    36.070385    78.071456   -312028.24 
    2020     196.1924    163277.95    72.297576    72.297577    36.070272          120    17403.544    17934.112   -35245.234    553.12781   -3020.2107    407.26097    72.297576    62.611538    36.070272    30.807225   -312029.22 
    2030    197.93376    163276.46    72.297357    72.297358    36.070163          120    16964.294    17787.512   -35408.757    610.91297   -2900.0748    370.80291    72.297357    62.611349    36.070163   -218.98358   -312031.79 
    2040    197.20505    163274.84    72.297117    72.297118    36.070043          120    16487.167    17770.972   -35750.884    501.72839   -2779.7994    357.79997    72.297117    62.611141    36.070043   -497.58169   -312029.64 
    2050    197.01328    163272.91    72.296833    72.296834    36.069901          120    16911.774    18214.448   -35517.467    1151.3776   -2913.0068    502.45618    72.296833    62.610895    36.069901   -130.41503   -312028.86 
    2060    195.92152    163270.87    72.296532    72.296533    36.069751          120    17163.119    17860.594    -36265.46    1219.5288   -3336.7739    167.69606    72.296532    62.610634    36.069751   -413.91558   -312026.43 
    2070    196.50933     163268.6    72.296196    72.296197    36.069584          120    16810.345    17860.884   -35488.301    840.42516   -3297.9512   -134.01473    72.296196    62.610343    36.069584    -272.3576   -312027.12 
    2080    195.95146    163266.17    72.295838    72.295839    36.069405          120    17389.397    17764.957   -35126.049    818.97676   -2876.2706   -202.89496    72.295838    62.610033    36.069405    9.4350098   -312024.92 
    2090    197.49376    163263.79    72.295486    72.295487    36.069229          120     17443.06    17446.464   -34841.192    441.09255   -2641.3838    96.180311    72.295486    62.609728    36.069229     16.11077   -312026.63 
    2100    196.77934    163261.48    72.295146    72.295147     36.06906          120    17623.571    17388.569   -35040.333    537.03088   -2764.5008    440.09521    72.295146    62.609434     36.06906   -9.3976788      -312024 
    2110    198.80194    163259.24    72.294815    72.294815    36.068894          120    17376.054    17694.201   -35113.247    515.83782   -2603.7205    309.88951    72.294815    62.609147    36.068894   -14.330921   -312026.63 
    2120     198.2891    163257.06    72.294493    72.294494    36.068734          120    17407.802     17988.21   -34707.175    740.68171   -2366.5857    520.80765    72.294493    62.608868    36.068734    229.61216   -312024.35 
    2130    199.25028    163255.05    72.294197    72.294198    36.068586          120    16894.232    17670.695   -35412.177    808.64574   -3128.2262    845.06864    72.294197    62.608612    36.068586   -282.41681   -312024.63 
    2140    199.04591    163252.91    72.293881    72.293881    36.068428          120    16886.927    17319.398   -35689.175    543.13411   -3369.9545    750.19022    72.293881    62.608338    36.068428    -494.2833    -312022.9 
    2150    199.18354    163250.44    72.293517    72.293517    36.068247          120    17496.498    16992.715   -35980.206    1002.8336   -3468.5637   -62.735089    72.293517    62.608023    36.068247    -496.9976   -312021.11 
    2160    200.92852    163247.66    72.293106    72.293107    36.068042          120    17330.149     17623.11     -36030.8    459.58663   -3317.3817   -656.50624    72.293106    62.607667    36.068042   -359.18027   -312022.87 
    2170    200.37904    163244.71     72.29267     72.29267    36.067824          120    17544.952    18221.858   -34995.845    119.97236   -3231.7453     42.69463     72.29267    62.607289    36.067824    256.98827    -312020.4 
    2180    199.93354    163241.97    72.292267    72.292267    36.067623          120    17447.864    18339.911   -34964.976    405.61113   -2684.7387   -73.753685    72.292267     62.60694    36.067623     274.2663      -312018 
    2190    200.65933    163239.52    72.291904    72.291905    36.067442          120    16928.888    18227.837   -35179.306    881.12951   -2505.0577    159.92114    72.291904    62.606626    36.067442   -7.5267866   -312018.29 
    2200    203.11691    163237.15    72.291554    72.291555    36.067268          120    17215.031    17904.644   -35327.568    849.37184   -2452.4618    247.06729    72.291554    62.606323    36.067268    -69.29729   -312021.56 
    2210    202.08638    163234.78    72.291204    72.291205    36.067093          120    17248.707      18049.3   -35565.967    739.66052   -2221.9117   -193.88117    72.291204     62.60602    36.067093   -89.320232    -312018.5 
    2220    203.94885    163232.41    72.290854    72.290855    36.066918          120    17519.336    17789.883    -35305.54    1132.8552    -3196.087    135.03228    72.290854    62.605717    36.066918    1.2261191   -312020.49 
    2230    203.16928    163230.07    72.290509    72.290509    36.066746          120    17686.384    17598.146   -35611.444    900.78052   -3132.7489   -57.683308    72.290509    62.605418    36.066746   -108.97128    -312017.3 
    2240    201.28479     163227.7    72.290159     72.29016    36.066572          120    17848.274    17574.239   -35838.793     776.4693   -3507.1391   -126.62675    72.290159    62.605115    36.066572   -138.75997   -312012.72 
    2250    203.09303    163225.21    72.289791    72.289792    36.066388          120    16564.018    17046.988    -36176.68    474.31939   -3439.7852   -109.90841    72.289791    62.604796    36.066388   -855.22439   -312015.72 
    2260    203.83973    163222.17    72.289343    72.289344    36.066165          120    15926.525    17298.602   -35756.363    587.22957   -3400.1835    130.87912    72.289343    62.604408    36.066165    -843.7453   -312016.23 
[...]
   99200    200.52874     163397.8    72.315261    72.315262    36.079095          120    18289.434    18269.977   -36504.209    398.18281    -3926.482    671.52202    72.315261    62.626854    36.079095    18.400632   -312055.68 
   99210    201.37638    163396.31    72.315042    72.315043    36.078986          120    17890.058    18266.401   -36003.597    369.24998    -3857.711    576.21665    72.315042    62.626664    36.078986    50.954087   -312056.94 
   99220    199.64942    163394.87     72.31483     72.31483     36.07888          120    17706.984    18786.205   -36224.453    6.2926108   -3900.7934     646.4598     72.31483     62.62648     36.07888    89.578563   -312053.26 
   99230    199.90093    163393.49    72.314625    72.314626    36.078778          120    17285.103    19504.058   -36538.426    151.38262   -3805.1668    534.69461    72.314625    62.626303    36.078778    83.578171   -312053.23 
   99240    200.50781    163392.18    72.314432    72.314433    36.078682          120    17853.497    19073.132   -35900.653    197.58296   -3866.3302    950.23472    72.314432    62.626136    36.078682    341.99189   -312054.37 
   99250    202.00733    163391.14     72.31428     72.31428    36.078606          120    18825.475    18905.848   -35791.596    215.75023   -4014.4423    816.01704     72.31428    62.626004    36.078606    646.57546   -312057.08 
   99260    201.24537    163390.62    72.314202    72.314203    36.078567          120    19122.965    18825.963   -35353.592    411.16895   -3980.5141    883.99348    72.314202    62.625937    36.078567    865.11218   -312055.68 
   99270    201.10544    163390.74     72.31422    72.314221    36.078576          120    18276.028    18791.477   -35511.358    378.43647   -3786.6184    546.16039     72.31422    62.625952    36.078576    518.71542   -312054.97 
   99280     201.3407     163391.3    72.314303    72.314304    36.078617          120    18069.849    19131.895   -35891.853       482.16   -4022.9437    830.85516    72.314303    62.626024    36.078617    436.63018   -312055.26 
   99290    200.75763     163392.2    72.314436    72.314437    36.078684          120    17836.922    19419.154   -36164.768    323.99257   -4197.8603    104.28488    72.314436    62.626139    36.078684    363.76923    -312054.1 
   99300    200.11493    163393.42    72.314616    72.314617    36.078774          120    18506.655    19047.875   -35286.843    118.25913   -4306.0099   -74.330559    72.314616    62.626295    36.078774    755.89579   -312052.64 
   99310    200.06532    163395.21     72.31488    72.314881    36.078905          120    18872.724    19230.382   -35432.083   -6.1469295   -4299.4608     169.7103     72.31488    62.626524    36.078905    890.34103   -312052.44 
   99320    202.37492    163397.66    72.315241    72.315241    36.079085          120    18641.943    19206.218    -36018.44    45.372634   -3681.6214    -34.72368    72.315241    62.626836    36.079085    609.90694   -312056.35 
   99330    201.42582    163400.66    72.315684    72.315685    36.079306          120    19261.273    19652.514   -35163.482    71.707851    -3470.149    696.25361    72.315684     62.62722    36.079306    1250.1015   -312054.82 
   99340    200.93448    163404.59    72.316263    72.316263    36.079595          120    19333.127    19489.846   -35534.037    252.74685   -4326.3188    1036.8971    72.316263    62.627721    36.079595    1096.3123   -312054.58 
   99350    201.47471    163409.36    72.316967    72.316968    36.079947          120    19088.562    19215.591   -35984.514   -226.21815   -4064.8852    1271.5726    72.316967    62.628331    36.079947    773.21282   -312055.43 
   99360    200.12755    163414.78    72.317766    72.317767    36.080345          120    18926.902    19859.416   -36396.261    -37.06503   -3709.3451    839.47712    72.317766    62.629023    36.080345    796.68556   -312053.33 
   99370    202.42031    163420.78    72.318652    72.318653    36.080787          120    18284.848    19226.778   -36233.333    46.118607   -3484.8862    745.92717    72.318652    62.629791    36.080787    426.09808   -312058.17 
   99380    198.27659    163427.18    72.319596    72.319596    36.081258          120    18525.098    18995.788   -35997.392   -116.84199   -3602.0451    227.24423    72.319596    62.630608    36.081258    507.83125   -312050.06 
   99390    199.25513    163433.98    72.320599    72.320599    36.081758          120    18981.183    19100.864     -35857.3    189.42433   -4207.2694    -289.7046    72.320599    62.631476    36.081758    741.58269   -312052.41 
   99400    201.96921    163441.33    72.321682    72.321683    36.082299          120    18427.543    19259.765   -35931.698    168.98102   -3781.8672   -200.38378    72.321682    62.632415    36.082299    585.20306   -312057.78 
   99410    199.53663    163449.17    72.322839    72.322839    36.082876          120    18188.492    19584.618   -35716.802    54.175169   -3726.4812    157.89865    72.322839    62.633416    36.082876    685.43573   -312053.83 
   99420    199.88062    163457.55    72.324075    72.324076    36.083493          120    18061.334    19423.069   -35010.512   -46.088599   -3349.5774    504.12974    72.324075    62.634487    36.083493    824.63045   -312054.62 
   99430    200.44106    163466.51    72.325396    72.325397    36.084152          120    17795.275    18502.642   -35837.198    138.31928   -3893.4137    506.87447    72.325396    62.635631    36.084152     153.5728    -312056.1 
   99440    200.54622    163475.61    72.326739     72.32674    36.084822          120    17536.519    18660.068   -36972.532   -298.61872   -3979.7636    504.42389    72.326739    62.636794    36.084822   -258.64867   -312056.77 
   99450     199.8586    163484.54    72.328055    72.328056    36.085478          120    17007.359    18626.626   -37020.718    202.69875    -3116.401    804.95999    72.328055    62.637934    36.085478   -462.24421    -312056.1 
   99460    198.97356    163493.13    72.329323    72.329323    36.086111          120    17413.043    18141.375   -36710.789    214.07429   -3368.8235    365.33049    72.329323    62.639032    36.086111   -385.45689   -312055.68 
   99470    198.48122    163501.47    72.330553    72.330554    36.086725          120    17421.374    18989.959    -36085.29   -345.44476   -3341.3154    266.57935    72.330553    62.640097    36.086725    108.68119   -312054.71 
   99480    200.10389    163509.83    72.331785    72.331786    36.087339          120    17601.068    18679.098   -36785.285    191.67432   -4167.2322    96.192781    72.331785    62.641164    36.087339   -168.37297   -312058.63 
   99490    200.04129    163518.03    72.332995    72.332995    36.087943          120    17397.924    17531.591   -37259.603    149.14122   -4478.0919    142.40175    72.332995    62.642212    36.087943   -776.69607   -312059.26 
   99500    196.03079    163525.69    72.334123    72.334124    36.088506          120     17577.86    17667.601   -37885.971    -222.4724   -4049.0638    250.55061    72.334123    62.643189    36.088506   -880.16994   -312052.23 
   99510    200.05344    163532.67    72.335153    72.335153    36.089019          120    17469.107     18181.41   -37640.953   -298.29133   -3704.6395    276.90037    72.335153     62.64408    36.089019   -663.47855   -312060.48 
   99520    198.73116    163539.13    72.336106    72.336106    36.089495          120    17348.538    18192.639   -36917.907   -186.62464   -3688.1946    455.66268    72.336106    62.644906    36.089495    -458.9104   -312057.71 
   99530    198.56953    163545.28    72.337012    72.337013    36.089947          120     17547.85    18322.485   -35634.813   -16.734333   -3597.1708    300.06299    72.337012    62.645691    36.089947    78.507529   -312057.72 
   99540    199.09065    163551.46    72.337923    72.337924    36.090402          120    17877.621    18046.702   -35655.677   -94.854532   -3925.3023    23.036938    72.337923     62.64648    36.090402    89.548531   -312058.85 
   99550    197.66462     163557.7    72.338843    72.338843     36.09086          120    18027.197    17552.499   -36413.379    6.2972306   -4130.2343    495.21664    72.338843    62.647276     36.09086    -277.8942   -312055.85 
   99560    197.57709    163563.69    72.339726    72.339727    36.091301          120    17621.899    17103.159   -37621.303    278.02878   -3832.6604    1020.4016    72.339726    62.648041    36.091301    -965.4152   -312055.61 
   99570    199.82257    163568.93    72.340499    72.340499    36.091687          120    16038.803     17239.01   -38462.254    556.02721   -3967.9808    1158.5046    72.340499     62.64871    36.091687   -1728.1468   -312060.05 
   99580    197.59012    163572.88    72.341081    72.341082    36.091977          120    15611.614    17811.581   -38452.579     685.9919    -4164.649    1208.3145    72.341081    62.649215    36.091977   -1676.4615   -312055.56 
   99590     198.6231    163575.54    72.341473    72.341474    36.092173          120     16533.79    17676.447   -37893.354    605.93169   -3634.0504     867.7864    72.341473    62.649554    36.092173   -1227.7058   -312057.44 
   99600    199.85661    163577.23    72.341723    72.341723    36.092297          120     16964.13    18156.722   -37485.271    390.52161   -3538.4417    297.04479    72.341723     62.64977    36.092297   -788.13958   -312059.75 
   99610    199.00515    163578.32    72.341883    72.341884    36.092377          120    17079.556    18346.285   -36330.862    278.06019   -3625.3574     345.2077    72.341883    62.649909    36.092377   -301.67349   -312058.02 
   99620     198.2169     163579.1    72.341998    72.341999    36.092435          120    17122.328    17975.157   -36921.784     196.7777   -3452.1977    111.39769    72.341998    62.650009    36.092435   -608.09976   -312055.97 
   99630    200.02664    163579.42    72.342045    72.342046    36.092458          120    16618.936    18113.523   -37563.663    177.99071   -4034.6006    33.923242    72.342045    62.650049    36.092458   -943.73482   -312059.31 
   99640    197.10574    163578.98    72.341981    72.341982    36.092426          120    16538.388    16898.298   -37915.583     602.4208   -4103.8395     495.2817    72.341981    62.649994    36.092426   -1492.9657   -312053.44 
   99650    198.62118    163577.39    72.341746    72.341746    36.092309          120    16007.571    16572.715   -38293.209    236.92697   -4251.5609    1127.9541    72.341746     62.64979    36.092309   -1904.3075   -312056.36 
   99660    198.85764    163574.37    72.341301    72.341302    36.092087          120    16444.142    17631.933   -37990.926   -472.99566   -3995.5197    1177.6547    72.341301    62.649405    36.092087   -1304.9502   -312056.75 
   99670    198.87053    163570.35    72.340708    72.340708    36.091791          120    17164.872    17856.229   -36398.857    -364.6567   -3725.4488    1194.7513    72.340708    62.648891    36.091791   -459.25228   -312056.38 
   99680    199.14579    163565.92    72.340055    72.340056    36.091465          120    18233.095    17429.376   -35786.884   -319.88479   -3283.6601    1138.7335    72.340055    62.648326    36.091465   -41.471097   -312056.43 
   99690    198.33259    163561.43    72.339393    72.339393    36.091135          120    17809.954    17764.819   -35866.329   -177.49528   -2985.2357    456.50962    72.339393    62.647752    36.091135   -97.185088   -312054.64 
   99700    200.34963    163556.81    72.338713    72.338713    36.090796          120    17253.649    17956.881    -36940.54    -55.98698   -3287.0355    256.78927    72.338713    62.647163    36.090796      -576.67   -312058.23 
   99710    199.52282    163551.78     72.33797     72.33797    36.090425          120     17449.49    18007.596   -37728.572    29.538743   -3825.3341    115.75842     72.33797     62.64652    36.090425   -757.16202   -312056.46 
   99720    200.22054    163546.12    72.337135    72.337136    36.090009          120    16839.201     17933.77   -38470.263    145.96457   -4244.7842   -140.43788    72.337135    62.645797    36.090009   -1232.4307   -312057.76 
   99730    200.43629    163539.51    72.336161    72.336161    36.089522          120    17059.782    17353.709   -38531.166    281.92362   -3774.3408    691.03843    72.336161    62.644953    36.089522   -1372.5582   -312057.67 
   99740    197.81563    163531.87    72.335035    72.335036    36.088961          120     16971.77    18077.429   -37454.247    368.42508   -4189.5575    942.84505    72.335035    62.643979    36.088961   -801.68274   -312052.54 
   99750    199.80731    163523.55    72.333809    72.333809    36.088349          120    16672.466     18367.42   -36951.416    453.73295   -4482.4858    459.82355    72.333809    62.642917    36.088349   -637.17656   -312056.73 
   99760    198.85553    163514.73    72.332508    72.332509      36.0877          120    16792.327    18450.303   -36930.511    411.54722   -4012.2608    781.25759    72.332508     62.64179      36.0877   -562.62688   -312055.13 
   99770    198.24215    163505.42    72.331136    72.331136    36.087015          120     16410.44    18749.498   -37710.087    387.36467   -3270.0817     1577.454    72.331136    62.640602    36.087015   -850.04986   -312053.35 
   99780    200.26217     163495.5    72.329672    72.329673    36.086285          120    16652.307    18808.267   -36733.341   -79.192283    -3604.733    1471.9344    72.329672    62.639334    36.086285   -424.25556   -312057.19 
   99790    199.09619    163485.22    72.328156    72.328157    36.085529          120    17108.995    18394.001   -36276.112   -214.32765   -3598.1336     1500.409    72.328156    62.638021    36.085529   -257.70525   -312054.75 
   99800    200.53648    163474.69    72.326603    72.326604    36.084754          120    17410.052    17836.067   -36812.727    167.58653   -2925.2129    793.73866    72.326603    62.636676    36.084754    -522.2031   -312057.26 
   99810    199.36037    163463.76    72.324991    72.324992     36.08395          120    17550.447    17879.279   -36641.539    249.31089   -3381.6906    535.21387    72.324991    62.635281     36.08395   -403.93777   -312055.34 
   99820    199.40651     163452.5     72.32333    72.323331    36.083121          120    17470.809     18221.13   -36599.134   -86.989132   -3288.6743    263.00596     72.32333    62.633842    36.083121   -302.39832   -312054.67 
   99830    200.71257    163440.97     72.32163     72.32163    36.082273          120    17537.825    18171.249    -36570.82   -284.23016   -3461.2935   -135.72392     72.32163    62.632369    36.082273    -287.2487   -312057.03 
   99840    200.88656    163429.27    72.319905    72.319905    36.081412          120    18442.621    19102.251   -36266.553   -159.84395   -4250.7998   -317.22439    72.319905    62.630875    36.081412    426.10633   -312057.12 
   99850     201.5034    163417.94    72.318232    72.318233    36.080578          120    18917.345    19962.983   -34595.924    26.796488   -3814.4672    89.175126    72.318232    62.629427    36.080578    1428.1346   -312057.93 
   99860    199.49693    163407.67    72.316717    72.316718    36.079822          120    19200.215    20297.092   -33905.465    128.84318    -3911.463    785.09059    72.316717    62.628115    36.079822    1863.9474   -312053.84 
   99870    201.04719    163398.81     72.31541    72.315411     36.07917          120    19543.523    20222.843   -34952.526    193.97645    -3777.203    721.92887     72.31541    62.626983     36.07917    1604.6134   -312056.92 
   99880    199.31227    163391.15     72.31428    72.314281    36.078606          120    18941.604    19481.129   -36003.183    415.75565   -3997.0881    858.28662     72.31428    62.626004    36.078606    806.51674   -312053.21 
   99890    200.60247    163384.17    72.313251    72.313252    36.078093          120     18902.37    19922.893   -36555.769    85.649329   -4044.9903    844.18578    72.313251    62.625113    36.078093    756.49819   -312055.74 
   99900    200.94794    163377.75    72.312304    72.312305     36.07762          120    18370.146    19835.406   -36532.859    243.84691   -3638.8969    859.36162    72.312304    62.624293     36.07762    557.56453   -312056.71 
   99910    200.02231    163371.82    72.311429     72.31143    36.077184          120    18519.114    20413.322   -36031.751   -132.53837   -3576.5212    648.28329    72.311429    62.623535    36.077184    966.89469   -312054.93 
   99920    199.59571    163366.66    72.310667    72.310668    36.076803          120    18976.397    20865.329   -35440.974    94.367356   -3567.2388    950.74326    72.310667    62.622875    36.076803    1466.9176    -312053.7 
   99930     200.2217     163362.6    72.310069     72.31007    36.076505          120    19501.662    20484.378   -34543.204    673.47624   -3869.8034    449.62504    72.310069    62.622357    36.076505    1814.2786   -312055.12 
   99940     200.4835    163359.95    72.309678    72.309678     36.07631          120    19631.932    20400.467   -34017.531    741.59176   -3529.3266    211.69768    72.309678    62.622019     36.07631    2004.9558   -312055.51 
   99950    201.82442    163358.82    72.309511    72.309512    36.076227          120     19173.09    20018.839   -34632.769    666.61872   -3505.3971    341.39988    72.309511    62.621874    36.076227    1519.7201   -312057.84 
   99960    199.14235    163358.89    72.309522    72.309522    36.076232          120    18913.938    19551.214   -35315.305    400.53366   -3999.0714     12.11514    72.309522    62.621883    36.076232    1049.9494   -312052.51 
   99970    199.49683    163359.77     72.30965    72.309651    36.076296          120    18977.821      18907.8   -36264.572   -58.686436   -4482.8959    393.13211     72.30965    62.621995    36.076296    540.34972   -312052.89 
   99980    202.73951    163361.11    72.309848    72.309849    36.076395          120    18336.704    19410.519   -36018.777   -268.00107   -4596.3658    763.67255    72.309848    62.622166    36.076395    576.14848   -312059.19 
   99990    201.29668     163362.9    72.310112    72.310113    36.076527          120    18837.573    18906.947   -35760.905   -52.123756   -4643.2504     1454.094    72.310112    62.622395    36.076527    661.20536   -312056.79 
  100000    200.13078    163365.22    72.310456    72.310456    36.076698          120    19444.905     18925.78   -35550.181    34.607733   -4352.3643    1089.5237    72.310456    62.622692    36.076698    940.16789   -312054.76 
Loop time of 29059.2 on 1 procs for 100000 steps with 14848 atoms

Performance: 0.297 ns/day, 80.720 hours/ns, 3.441 timesteps/s
100.0% CPU use with 1 MPI tasks x no OpenMP threads

MPI task timing breakdown:
Section |  min time  |  avg time  |  max time  |%varavg| %total
---------------------------------------------------------------
Pair    | 24339      | 24339      | 24339      |   0.0 | 83.76
Bond    | 0.02437    | 0.02437    | 0.02437    |   0.0 |  0.00
Kspace  | 1103.2     | 1103.2     | 1103.2     |   0.0 |  3.80
Neigh   | 2932.3     | 2932.3     | 2932.3     |   0.0 | 10.09
Comm    | 39.874     | 39.874     | 39.874     |   0.0 |  0.14
Output  | 1.0671     | 1.0671     | 1.0671     |   0.0 |  0.00
Modify  | 632.96     | 632.96     | 632.96     |   0.0 |  2.18
Other   |            | 10.87      |            |       |  0.04

Nlocal:    14848 ave 14848 max 14848 min
Histogram: 1 0 0 0 0 0 0 0 0 0
Nghost:    46801 ave 46801 max 46801 min
Histogram: 1 0 0 0 0 0 0 0 0 0
Neighs:    1.00732e+07 ave 1.00732e+07 max 1.00732e+07 min
Histogram: 1 0 0 0 0 0 0 0 0 0

Total # of neighbors = 10073188
Ave neighs/atom = 678.421
Ave special neighs/atom = 0
Neighbor list builds = 10493
Dangerous builds = 0
 
All done!
Total wall time: 8:09:19
