LAMMPS (16 Mar 2018)
Reading data file ...
  triclinic box = (0 0 0) to (9.208 7.97436 18.376) with tilt (-4.604 0 0)
  1 by 1 by 1 MPI processor grid
  reading atoms ...
  116 atoms
Finding 1-2 1-3 1-4 neighbors ...
  special bond factors lj:   0          0          0         
  special bond factors coul: 0          0          0         
  0 = max # of 1-2 neighbors
  0 = max # of 1-3 neighbors
  0 = max # of 1-4 neighbors
  1 = max # of special neighbors
Replicating atoms ...
  triclinic box = (0 0 0) to (73.664 63.7949 36.752) with tilt (-36.832 0 0)
  1 by 1 by 1 MPI processor grid
  14848 atoms
Finding 1-2 1-3 1-4 neighbors ...
  special bond factors lj:   0          0          0         
  special bond factors coul: 0          0          0         
  0 = max # of 1-2 neighbors
  0 = max # of 1-3 neighbors
  0 = max # of 1-4 neighbors
  1 = max # of special neighbors
  Time spent = 0.00499606 secs
PPPM initialization ...
WARNING: System is not charge neutral, net charge = -0.2048 (../kspace.cpp:302)
  using 12-bit tables for long-range coulomb (../kspace.cpp:321)
  G vector (1/distance) = 0.201681
  grid = 36 50 24
  stencil order = 5
  estimated absolute RMS force accuracy = 0.00105653
  estimated relative force accuracy = 7.33721e-05
  using double precision FFTs
  3d grid and FFT values/proc = 65395 43200
Neighbor list info ...
  update every 1 steps, delay 0 steps, check yes
  max neighbors/atom: 2000, page size: 100000
  master list distance cutoff = 15.3
  ghost atom cutoff = 15.3
  binsize = 7.65, bins = 15 9 5
  3 neighbor lists, perpetual/occasional/extra = 3 0 0
  (1) pair morse, perpetual
      attributes: half, newton on
      pair build: half/bin/newton/tri
      stencil: half/bin/3d/newton/tri
      bin: standard
  (2) pair buck, perpetual, copy from (1)
      attributes: half, newton on
      pair build: copy
      stencil: none
      bin: none
  (3) pair lj/cut/coul/long, perpetual, copy from (1)
      attributes: half, newton on
      pair build: copy
      stencil: none
      bin: none
Setting up Verlet run ...
  Unit style    : metal
  Current step  : 0
  Time step     : 0.001
Per MPI rank memory allocation (min/avg/max) = 145.7 | 145.7 | 145.7 Mbytes
Step Temp Volume Cella Cellb Cellc CellGamma Pxx Pyy Pzz Pxy Pxz Pyz Lx Ly Lz Press PotEng 
       0          190    172711.88       73.664    73.664001       36.752          120   -209253.61   -209281.44   -280265.61    16.259965   -4.8344716    6.4607795       73.664    63.794896       36.752   -232933.55   -309191.56 
      10    307.68974    172605.21    73.648831    73.648832    36.744432          120   -212082.14   -212169.56   -259417.77    97.856613   -16.264349   -145.12163    73.648831    63.781759    36.744432   -227889.82   -309458.23 
      20    565.20519    172291.87    73.604239     73.60424    36.722184          120   -210654.91   -210282.23   -200397.32     23.21762   -227.23286   -313.72043    73.604239    63.743141    36.722184   -207111.49    -310013.7 
      30     550.7649    171801.33    73.534318    73.534319      36.6873          120    -186931.6    -186440.5    -120201.8   -210.76121   -754.28245   -392.04954    73.534318    63.682588      36.6873   -164524.63    -310069.1 
      40    329.48427    171198.97    73.448277    73.448277    36.644373          120   -145637.16   -145628.26   -40902.423   -500.78978   -1124.6312   -439.84427    73.448277    63.608074    36.644373   -110722.62   -309712.17 
      50    409.41548    170573.06    73.358657    73.358658     36.59966          120    -103145.3   -103500.88   -5171.7114   -620.33143   -1194.5658   -600.89095    73.358657    63.530461     36.59966   -70605.963   -309907.04 
      60    722.86739    169993.51    73.275481    73.275481    36.558162          120   -73460.908   -73362.885   -39476.052   -584.59913   -2105.0056   -455.33765    73.275481    63.458428    36.558162   -62099.948   -310552.61 
      70    912.76529    169482.97    73.202052    73.202052    36.521528          120   -52536.607   -52154.711   -101774.86   -1420.2217   -2437.1908   -367.21712    73.202052    63.394837    36.521528    -68822.06   -310994.87 
      80    767.29043    169031.34    73.136972    73.136973    36.489058          120   -39116.456   -39563.656    -146963.8   -1725.0629   -2990.6282    142.70464    73.136972    63.338477    36.489058   -75214.638    -310797.4 
      90    491.15466    168619.31    73.077496    73.077497    36.459385          120   -32333.895   -32914.929   -162093.22   -1911.3247   -3523.7284    11.744187    73.077496    63.286969    36.459385   -75780.682   -310328.94 
     100    513.07436    168232.13    73.021522    73.021522    36.431459          120   -17660.581   -17652.397   -142333.87   -1709.3342   -3294.1224   -526.75009    73.021522    63.238493    36.431459   -59215.617   -310417.86 
     110    687.10664    167869.45     72.96901     72.96901     36.40526          120    1357.9318    1347.2686   -99344.372   -1821.0493   -2653.0486   -608.05483     72.96901    63.193017     36.40526   -32213.057   -310807.93 
     120    681.61173    167540.33    72.921291    72.921292    36.381452          120    12025.435    12104.702   -47646.532   -1761.9578   -2231.4817   -1185.2509    72.921291    63.151691    36.381452   -7838.7984   -310860.35 
     130     573.9956    167252.66    72.879532    72.879532    36.360618          120     10236.89    11166.282   -7033.4134   -1800.0955   -2193.5244   -1079.1071    72.879532    63.115527    36.360618    4789.9196   -310707.16 
     140    529.77319    167006.64    72.843779     72.84378     36.34278          120    5168.6601    5235.9054     5134.446   -1344.4085   -2091.3652   -850.19031    72.843779    63.084564     36.34278    5179.6705   -310665.16 
     150     587.6856    166794.22    72.812882    72.812883    36.327365          120   -2310.5499   -1229.9664   -19139.841   -1866.4336   -1613.4838   -485.60289    72.812882    63.057806    36.327365    -7560.119   -310821.05 
     160    646.51762    166599.67    72.784563    72.784563    36.313236          120   -12869.376   -11019.626   -56774.358   -1572.8342   -1728.0194   -339.58529    72.784563    63.033281    36.313236   -26887.787   -310990.32 
     170    618.79257    166405.23    72.756235    72.756235    36.299103          120   -17795.869   -15582.829   -86964.406   -649.11176   -2293.5679   -614.43973    72.756235    63.008748    36.299103   -40114.368   -310999.45 
     180    537.29599    166200.02    72.726315    72.726316    36.284176          120   -14191.886   -11794.132   -103178.13   -320.76912   -2434.9674   -775.86419    72.726315    62.982837    36.284176   -43054.716   -310898.99 
     190    517.94094    165982.71    72.694604    72.694605    36.268355          120   -8808.8645   -6660.7566   -99693.037    286.58086   -2074.1952   -525.62542    72.694604    62.955375    36.268355   -38387.553   -310910.88 
     200    557.68245    165758.69    72.661885    72.661886    36.252031          120   -4253.2384    -2770.995   -79217.479   -326.50816   -2128.1721   -481.07054    72.661885    62.927039    36.252031   -28747.237   -311037.64 
     210    559.50488    165536.88    72.629461    72.629461    36.235854          120    64.017967    1882.2241   -54614.481   -985.16964   -2285.9674   -477.99858    72.629461    62.898959    36.235854    -17556.08   -311094.07 
     220    526.57123    165326.42    72.598668    72.598668    36.220491          120    3963.3537    5335.9725   -35069.309   -528.64494   -1900.9421   -1289.9836    72.598668    62.872291    36.220491   -8589.9944   -311080.02 
     230    505.18422    165133.27    72.570384    72.570384    36.206379          120    4958.3969     5355.636   -28818.482   -297.86271   -1278.7711   -1944.6334    72.570384    62.847796    36.206379   -6168.1496   -311083.92 
     240    509.41438    164957.58    72.544639    72.544639    36.193535          120    3169.1743    3099.0382   -35051.837   -197.38173   -1740.8044   -2220.8819    72.544639    62.825501    36.193535   -9594.5416   -311136.11 
     250    524.32922     164794.8    72.520769    72.520769    36.181626          120    1044.7196    393.45821   -49887.616    22.972896    -1635.848   -2340.5431    72.520769    62.804829    36.181626   -16149.813   -311211.32 
     260    513.04348    164638.47     72.49783     72.49783    36.170181          120    692.36509   -991.99863   -65037.213    -65.48973   -1462.8603   -2419.4135     72.49783    62.784963    36.170181   -21778.949   -311237.59 
     270    483.74748    164483.53     72.47508     72.47508    36.158831          120    1393.9011   -299.37395   -73278.123   -683.98357   -1292.6191   -1580.3003     72.47508    62.765261    36.158831   -24061.199   -311227.69 
     280    467.32645    164328.05    72.452236    72.452237    36.147434          120    2538.2102    1750.2399   -71041.099   -611.21476   -959.42896   -852.86076    72.452236    62.745478    36.147434   -22250.883   -311238.75 
     290    470.90117    164173.51    72.429517    72.429518    36.136099          120     5534.499    5751.1007   -60480.247   -596.84343    -1393.775   -501.28154    72.429517    62.725803    36.136099   -16398.216   -311287.68 
     300    471.09468    164024.17    72.407548    72.407549    36.125139          120    9184.2228    9698.8321   -46070.511   -194.86009   -1633.0533   -289.91117    72.407548    62.706777    36.125139   -9062.4855   -311330.11 
     310    460.88204    163884.91    72.387051    72.387051    36.114912          120    11557.804      11675.8   -32019.409    249.68967   -1758.7667   -492.90406    72.387051    62.689025    36.114912   -2928.6015   -311350.93 
     320    444.58678       163759    72.368508    72.368508    36.105661          120     10957.69    11808.952   -25109.081     40.79514   -2159.4328   -1305.7901    72.368508    62.672967    36.105661   -780.81299   -311358.37 
     330    441.16075    163646.39    72.351916    72.351916    36.097383          120    9046.4904    10765.977   -26887.602   -172.52026   -2094.2598   -1358.9744    72.351916    62.658598    36.097383    -2358.378   -311388.84 
     340    437.29667    163544.24    72.336859    72.336859    36.089871          120    8384.4545    9802.0133   -36419.479   -81.292607   -1553.4413   -1182.8725    72.336859    62.645558    36.089871   -6077.6704   -311418.17 
     350     431.2414    163448.39    72.322724    72.322725    36.082819          120    8375.0237    9541.2483   -48008.213   -377.59095   -970.08164   -1169.7863    72.322724    62.633317    36.082819   -10030.647   -311443.29 
     360    416.16049    163355.08    72.308958    72.308959    36.075951          120    8787.4517    10611.085   -54597.142   -671.89603   -796.31876   -2153.9064    72.308958    62.621396    36.075951   -11732.868   -311449.59 
     370    403.10295    163262.55    72.295303    72.295304    36.069138          120    9295.0722    12772.385   -54808.272     -805.648   -1882.1801   -2655.8274    72.295303     62.60957    36.069138   -10913.605   -311458.71 
     380    400.28007    163171.23    72.281822    72.281823    36.062412          120     11783.45    15132.275   -49071.219   -791.64811   -2067.0866   -2320.1171    72.281822    62.597895    36.062412   -7385.1646   -311485.71 
     390    397.40275    163083.49    72.268864    72.268865    36.055947          120    14169.844    16654.268   -39573.801   -750.34544   -2768.7475   -2408.8906    72.268864    62.586673    36.055947   -2916.5631   -311512.48 
     400    385.43457     163002.2    72.256855    72.256855    36.049956          120    15505.505    17296.283   -29997.607    94.279108   -3105.4763   -1912.7054    72.256855    62.576272    36.049956    934.72672   -311520.44 
     410    376.66154    162929.49    72.246109     72.24611    36.044594          120    16433.464    17916.094   -25915.282    216.45181   -2574.4294    -1923.105    72.246109    62.566967    36.044594    2811.4252   -311533.06 
     420    376.74629     162865.8    72.236694    72.236694    36.039897          120    15808.654    17992.297   -27507.339    91.962163   -2443.6572   -995.26698    72.236694    62.558812    36.039897    2097.8705   -311562.68 
     430    369.50248    162809.61    72.228385    72.228386    36.035752          120    14677.306    16852.709   -32676.901    517.72001    -2069.133   -295.98984    72.228385    62.551617    36.035752   -382.29534   -311578.06 
     440    361.61612    162758.27    72.220793    72.220794    36.031964          120    14231.642    15514.025   -39207.633    338.08349   -2452.3758   -471.63247    72.220793    62.545042    36.031964   -3153.9885   -311591.08 
     450    352.30084    162709.22    72.213537    72.213537    36.028344          120    14983.173    15369.037   -43277.034    132.59927   -2036.5789   -385.59562    72.213537    62.538758    36.028344   -4308.2749   -311600.39 
     460    346.43957    162661.39     72.20646    72.206461    36.024813          120    17656.052    17090.487    -42792.66    650.26637   -1990.3404   -435.81194     72.20646     62.53263    36.024813   -2682.0405   -311615.21 
     470    341.36393    162615.72    72.199702    72.199702    36.021441          120    20086.323    18625.383    -39248.04    1016.9649    -2588.095   -68.770401    72.199702    62.526777    36.021441   -178.77822   -311630.51 
     480    338.57351    162573.87    72.193508    72.193508    36.018351          120    20604.924    20266.552   -33182.279    1208.4678    -2163.011   -174.18614    72.193508    62.521412    36.018351    2563.0656    -311649.9 
     490    333.09737     162537.5    72.188123    72.188124    36.015664          120    20532.965    21625.814   -28770.505    1440.8789   -1939.1464   -482.85658    72.188123    62.516749    36.015664    4462.7583   -311663.67 
     500    324.49255     162507.6    72.183696    72.183697    36.013456          120    20499.279    22591.354   -26564.795     1232.637   -2191.4469    715.22616    72.183696    62.512915    36.013456    5508.6126   -311670.38 
     510    321.50461     162484.3    72.180247    72.180247    36.011735          120    19545.731    22152.328   -27674.638    1328.2663   -2406.5758     554.4911    72.180247    62.509928    36.011735    4674.4738   -311687.63 
     520    315.13638    162466.45    72.177604    72.177605    36.010416          120     18705.05    21018.152   -30847.212    994.63191   -2593.3832    175.52701    72.177604    62.507639    36.010416    2958.6633   -311697.26 
     530    311.00467    162452.32     72.17551    72.175511    36.009372          120    18326.524    20601.518    -35066.65    569.61649   -2286.8717    735.70197     72.17551    62.505826    36.009372    1287.1309   -311710.49 
     540     305.4513    162440.29    72.173729    72.173729    36.008483          120     17734.81    20767.092   -38147.685    510.57072   -2326.2571    381.96946    72.173729    62.504283    36.008483    118.07246   -311720.92 
     550    299.03651    162429.36    72.172111    72.172111    36.007676          120    17453.743     21441.46   -38047.888    735.83941   -1852.3852    383.10577    72.172111    62.502882    36.007676    282.43817    -311729.1 
     560    295.65605    162419.55    72.170657    72.170658     36.00695          120      18324.6    22035.791   -35852.373    176.55789   -2113.7219    833.36269    72.170657    62.501623     36.00695    1502.6725   -311742.54 
     570    290.30263    162411.67     72.16949     72.16949    36.006368          120    19607.603    21959.417   -32200.844    567.38211   -2420.2124    849.35255     72.16949    62.500612    36.006368    3122.0586   -311751.11 
     580    286.34818    162406.78    72.168765    72.168766    36.006007          120    20372.774    22045.373   -29147.541    1048.2733   -2192.0122    261.16578    72.168765    62.499985    36.006007    4423.5356   -311761.61 
     590    284.22759    162405.66    72.168601    72.168601    36.005924          120    20273.553    22135.605    -27269.32    1152.5365   -2438.9612   -100.79744    72.168601    62.499842    36.005924    5046.6128   -311775.81 
     600     276.4057    162408.51    72.169022    72.169022    36.006134          120    20144.213    21171.062   -28102.322    850.36736   -1894.9039   -335.94299    72.169022    62.500207    36.006134    4404.3178    -311778.6 
     610    275.28503    162414.55    72.169917    72.169917    36.006581          120    19492.367      20405.4   -30642.218    199.86619    -1840.327   -504.38196    72.169917    62.500982    36.006581    3085.1828   -311793.07 
     620    271.57162    162422.62    72.171112    72.171113    36.007177          120    19587.803    20200.781   -33471.477   -152.21841    -2150.857   -798.01514    72.171112    62.502017    36.007177    2105.7023   -311802.93 
     630     268.0636    162431.83    72.172476    72.172477    36.007858          120    19778.857    19770.677   -34992.456    217.01498   -2006.4579   -568.78959    72.172476    62.503199    36.007858    1519.0259   -311812.55 
     640    260.63306    162441.63    72.173928    72.173929    36.008582          120    19752.738    19512.631   -35275.456    594.41732   -1792.1166     225.1056    72.173928    62.504456    36.008582     1329.971   -311813.57 
     650    259.49076    162451.84     72.17544    72.175441    36.009337          120    19574.071    19802.335   -34368.451    1078.4606   -2291.3033   -38.797641     72.17544    62.505765    36.009337    1669.3182   -311826.04 
     660    259.06993    162462.78    72.177059     72.17706    36.010145          120    20123.286    20583.217   -31892.042    904.28232   -2284.6031    83.325862    72.177059    62.507168    36.010145    2938.1534   -311840.26 
     670    254.78115    162475.31    72.178915    72.178916     36.01107          120    20512.316    20794.883    -29114.86    377.82834   -1774.1355   -493.99878    72.178915    62.508775     36.01107     4064.113   -311847.22 
     680    250.06037    162490.15    72.181114    72.181114    36.012167          120    20097.047    20478.915   -28598.304   -74.210301   -1599.9724   -476.54349    72.181114    62.510679    36.012167    3992.5528   -311851.78 
     690    246.43911    162507.14    72.183629    72.183629    36.013422          120    19024.932    20282.598   -30213.233   -699.28406   -1916.3184   -312.21723    72.183629    62.512857    36.013422    3031.4324   -311858.69 
     700    243.27241    162525.44    72.186337    72.186338    36.014773          120    18611.973    19515.737   -32504.894   -695.72755   -2068.4873    -404.3673    72.186337    62.515203    36.014773     1874.272   -311865.54 
     710    241.27669    162544.03    72.189091    72.189091    36.016147          120    17415.626    18540.744   -34180.169   -487.54732   -1879.9603   -140.18974    72.189091    62.517587    36.016147     592.0668   -311874.54 
     720    236.34836    162562.01    72.191751    72.191752    36.017475          120    16956.984    19124.747   -35416.404   -170.62218   -1634.4661   -235.28536    72.191751    62.519891    36.017475    221.77562   -311877.73 
     730    234.96059    162579.12    72.194285    72.194286    36.018739          120    17818.017    19881.148   -35107.732    116.11116   -1689.4307   -513.43813    72.194285    62.522086    36.018739    863.81098   -311887.55 
     740    234.33085    162595.94    72.196774    72.196774     36.01998          120    19014.224    20307.517   -33408.512    102.19304   -1890.8725   -792.00694    72.196774    62.524241     36.01998    1971.0764   -311897.86 
     750    229.78975    162613.23    72.199333    72.199334    36.021257          120    18911.416    20095.726    -32236.52   -219.86697   -1724.0287   -890.96565    72.199333    62.526457    36.021257    2256.8743   -311900.33 
     760    227.02864     162631.3    72.202007    72.202008    36.022591          120    19120.256    20167.536   -31297.278   -354.30918   -1280.4102   -519.07197    72.202007    62.528773    36.022591    2663.5045   -311905.94 
     770    225.58431    162650.37    72.204829    72.204829    36.023999          120    19018.869    20264.997   -31691.531   -243.11224   -1284.4603   -745.23302    72.204829    62.531217    36.023999     2530.778    -311913.6 
     780    222.94954    162670.28    72.207775    72.207776    36.025469          120    18363.804    19292.324   -32583.905   -83.372851   -1025.7205   -778.17612    72.207775    62.533768    36.025469    1690.7408    -311918.6 
     790    221.50107    162690.33    72.210743    72.210743     36.02695          120    17622.189    18472.248   -34329.387   -9.9747859   -1407.3727   -1139.1407    72.210743    62.536338     36.02695    588.34997   -311926.69 
     800    216.92182    162709.76    72.213617    72.213617    36.028384          120    17873.296    18383.781   -35020.259    806.43586   -1715.0044   -1190.5806    72.213617    62.538827    36.028384    412.27281   -311927.61 
     810    214.53207    162728.36    72.216368    72.216368    36.029756          120    17419.319    18147.499   -36002.501    1086.7509   -1535.8326   -997.15585    72.216368     62.54121    36.029756   -145.22767   -311932.42 
     820    211.42455    162745.79    72.218947    72.218947    36.031043          120    16810.206    18012.999   -36320.361    629.67793   -2032.1401   -791.00469    72.218947    62.543443    36.031043   -499.05193   -311935.32 
     830    209.30282     162761.9     72.22133    72.221331    36.032232          120    16875.641    17992.655    -34966.61    378.81898   -2365.8753   -867.55053     72.22133    62.545507    36.032232   -32.771558    -311939.8 
     840    207.81256    162777.07    72.223572    72.223573    36.033351          120    17004.486    17812.568   -34116.292    232.40294   -1936.3289   -956.98568    72.223572    62.547449    36.033351    233.58758   -311945.43 
     850    205.13411    162791.56    72.225716    72.225717     36.03442          120    17376.255    17909.353   -33934.099    273.34963   -1148.8367   -778.22329    72.225716    62.549306     36.03442    450.50315   -311948.26 
     860    204.57685     162805.6    72.227792    72.227792    36.035456          120    17353.749    17577.726   -33521.669    597.28227   -899.27529   -842.09678    72.227792    62.551103    36.035456    469.93545   -311954.68 
     870    204.31481    162819.25    72.229811    72.229811    36.036463          120    17381.677    17743.709   -33474.553    446.29765   -634.77978    -588.0642    72.229811    62.552851    36.036463    550.27762   -311961.55 
     880    200.49857    162832.56    72.231779    72.231779    36.037445          120    16756.976    18736.697   -35011.941    679.10103   -953.38144   -466.50027    72.231779    62.554556    36.037445    160.57713   -311961.68 
     890    200.68524    162845.27    72.233659     72.23366    36.038383          120    16470.626    18499.512   -35769.328    759.19778   -1220.7693   -394.68133    72.233659    62.556184    36.038383   -266.39667   -311969.07 
     900    197.89553    162857.14    72.235413    72.235413    36.039258          120    16880.308    17941.044    -35506.18    840.71383   -1136.8001   -181.35484    72.235413    62.557703    36.039258   -228.27615   -311970.29 
     910    197.33675    162868.19    72.237047    72.237048    36.040073          120    17318.499    17839.735   -35531.756    1226.9151    -1622.069   -411.44603    72.237047    62.559119    36.040073   -124.50724   -311975.58 
     920    197.09391    162878.55    72.238579     72.23858    36.040838          120    17376.119     17432.47   -35454.619    1924.9953   -1615.1864   -982.39804    72.238579    62.560445    36.040838   -215.34301   -311981.63 
     930    192.98932     162888.2    72.240005    72.240005    36.041549          120    17133.159    17111.756   -35473.206    1898.9017   -1688.7698   -1107.8313    72.240005     62.56168    36.041549   -409.43015   -311979.53 
     940    191.14122    162897.03     72.24131    72.241311      36.0422          120    16834.861    16921.043   -35045.233    1472.3475   -2069.2497   -1047.0915     72.24131     62.56281      36.0422   -429.77638   -311981.07 
     950    192.06213    162905.03    72.242494    72.242495    36.042791          120    16284.992      17360.9   -35260.153    738.34336   -1749.9966   -1172.4111    72.242494    62.563836    36.042791   -538.08699   -311988.34 
     960    190.66106    162912.22    72.243556    72.243557    36.043321          120    16918.877    17638.915   -35561.475    67.174299   -1786.1273   -920.88823    72.243556    62.564756    36.043321   -334.56094   -311990.58 
     970    189.18859    162918.76    72.244523    72.244524    36.043803          120    17437.943    17500.002   -35588.116    228.21531   -1934.6968   -636.46825    72.244523    62.565593    36.043803   -216.72352   -311992.53 
     980    187.77347    162924.78    72.245413    72.245413    36.044247          120    17192.109    17326.678   -35970.333    596.13196   -1822.2439   -270.31149    72.245413    62.566364    36.044247   -483.84868   -311994.42 
     990    186.55875    162930.11      72.2462      72.2462     36.04464          120    16272.451    17040.761    -35835.14    1207.0897   -1954.8866   -141.28719      72.2462    62.567045     36.04464   -840.64276   -311996.41 
    1000    186.04488     162934.5    72.246849     72.24685    36.044964          120    15950.701    16770.558   -35422.621    1110.6591   -1275.1677   -491.49074    72.246849    62.567608    36.044964    -900.4539   -311999.47 
Loop time of 388.637 on 1 procs for 1000 steps with 14848 atoms

Performance: 0.222 ns/day, 107.955 hours/ns, 2.573 timesteps/s
100.0% CPU use with 1 MPI tasks x no OpenMP threads

MPI task timing breakdown:
Section |  min time  |  avg time  |  max time  |%varavg| %total
---------------------------------------------------------------
Pair    | 314.32     | 314.32     | 314.32     |   0.0 | 80.88
Bond    | 0.0005846  | 0.0005846  | 0.0005846  |   0.0 |  0.00
Kspace  | 14.597     | 14.597     | 14.597     |   0.0 |  3.76
Neigh   | 50.634     | 50.634     | 50.634     |   0.0 | 13.03
Comm    | 0.53137    | 0.53137    | 0.53137    |   0.0 |  0.14
Output  | 0.013697   | 0.013697   | 0.013697   |   0.0 |  0.00
Modify  | 8.3598     | 8.3598     | 8.3598     |   0.0 |  2.15
Other   |            | 0.176      |            |       |  0.05

Nlocal:    14848 ave 14848 max 14848 min
Histogram: 1 0 0 0 0 0 0 0 0 0
Nghost:    46900 ave 46900 max 46900 min
Histogram: 1 0 0 0 0 0 0 0 0 0
Neighs:    1.01002e+07 ave 1.01002e+07 max 1.01002e+07 min
Histogram: 1 0 0 0 0 0 0 0 0 0

Total # of neighbors = 10100211
Ave neighs/atom = 680.241
Ave special neighs/atom = 0
Neighbor list builds = 150
Dangerous builds = 0
PPPM initialization ...
  using 12-bit tables for long-range coulomb (../kspace.cpp:321)
  G vector (1/distance) = 0.202634
  grid = 36 50 24
  stencil order = 5
  estimated absolute RMS force accuracy = 0.00099584
  estimated relative force accuracy = 6.91572e-05
  using double precision FFTs
  3d grid and FFT values/proc = 65395 43200
Setting up Verlet run ...
  Unit style    : metal
  Current step  : 0
  Time step     : 0.001
Per MPI rank memory allocation (min/avg/max) = 152.6 | 152.6 | 152.6 Mbytes
Step Temp Volume Cella Cellb Cellc CellGamma Pxx Pyy Pzz Pxy Pxz Pyz Lx Ly Lz Press PotEng 
       0    186.04488     162934.5    72.246849     72.24685    36.044964          120    15963.351     16783.63    -35415.24    1111.1282   -1274.9338   -491.52695    72.246849    62.567608    36.044964    -889.4198   -311999.29 
      10    183.90938    162937.97    72.247363    72.247363     36.04522          120    16114.847    17031.808   -35249.491    1265.8514   -1673.7949   -387.78583    72.247363    62.568052     36.04522   -700.94539   -311998.81 
      20    183.15825     162940.7    72.247765    72.247766    36.045421          120    15798.114     17026.57   -35131.257    713.09136    -1711.447    -270.6519    72.247765    62.568401    36.045421   -768.85776   -312000.05 
      30    183.76802    162942.67    72.248057    72.248058    36.045566          120    15746.359    17306.458   -35352.681   -7.2093314   -1799.1698    -602.4224    72.248057    62.568654    36.045566   -766.62156   -312004.24 
      40    184.18553    162943.94    72.248245    72.248245     36.04566          120    15862.016    17370.566   -35435.732    353.79399   -1991.7597   -511.55783    72.248245    62.568816     36.04566   -734.38301   -312007.98 
      50    183.02407    162944.55    72.248335    72.248336    36.045705          120    16132.512    17036.016   -35983.958    905.35575   -1745.2074   -173.84196    72.248335    62.568894    36.045705   -938.47656   -312008.07 
      60    181.54457    162944.37    72.248308    72.248308    36.045691          120    15497.654    16974.373   -36451.565    864.64075   -1715.2597    26.378594    72.248308    62.568871    36.045691   -1326.5125   -312007.29 
      70    181.22671    162943.16    72.248129    72.248129    36.045602          120    15607.692     17052.21   -36756.165    832.09031   -1075.6084    -96.21232    72.248129    62.568716    36.045602   -1365.4207   -312008.68 
      80    181.42308    162940.93      72.2478      72.2478    36.045438          120     15829.74     17100.06   -36165.601    757.19042   -1091.7781    110.39687      72.2478    62.568431    36.045438   -1078.6002   -312010.42 
      90    182.70556    162937.93    72.247356    72.247357    36.045217          120    15878.443      17171.4   -35960.795    328.71663   -1021.1241     27.61831    72.247356    62.568047    36.045217    -970.3177   -312014.03 
     100    181.45085    162934.31    72.246821    72.246821    36.044949          120    16145.032     17278.33   -35866.003    386.95057    -1350.753    116.62611    72.246821    62.567583    36.044949   -814.21358   -312012.79 
     110    181.39441    162930.23    72.246219    72.246219    36.044649          120    16148.536    17769.577   -34799.877    676.96887   -1585.7857   -30.392981    72.246219    62.567061    36.044649   -293.92121    -312013.1 
     120    181.57145    162926.11    72.245609    72.245609    36.044345          120    16343.041    17875.204   -34118.514    801.30334   -1398.7561    96.624712    72.245609    62.566533    36.044345    33.243643   -312013.64 
     130    181.86498    162922.17    72.245027    72.245027    36.044054          120    16316.345     18045.49   -34240.155    652.53905   -1565.3517    505.24404    72.245027    62.566029    36.044054    40.560092   -312013.96 
     140    183.90032    162918.45    72.244477    72.244478     36.04378          120    16673.935    18414.917   -34717.175    791.70994   -1645.2434    163.08838    72.244477    62.565553     36.04378    123.89217   -312017.65 
     150     182.2364    162915.02     72.24397     72.24397    36.043527          120     17537.36    18380.581   -34797.104    684.48796   -1243.1939    9.5439552     72.24397    62.565114    36.043527    373.61247   -312013.72 
     160    182.38144    162912.04    72.243529     72.24353    36.043307          120    17637.984    18746.563   -34672.009    617.40209   -977.34996     73.12057    72.243529    62.564732    36.043307    570.84614   -312012.94 
     170    182.67223    162909.61    72.243171    72.243171    36.043128          120    17545.384    18805.445   -35119.151    670.53173   -911.60885    154.06098    72.243171    62.564422    36.043128    410.55961   -312012.14 
     180    182.78899    162907.63    72.242877    72.242878    36.042982          120    17658.472    18723.792   -35409.855    678.38796   -845.19409    61.572377    72.242877    62.564167    36.042982    324.13664   -312011.09 
     190    183.53635    162905.99    72.242636    72.242636    36.042861          120    17635.767    18629.062    -35179.74      682.043   -669.18988   -395.82672    72.242636    62.563958    36.042861    361.69612   -312011.26 
     200    183.63203    162904.72    72.242448    72.242449    36.042768          120    17343.164    18514.766   -34674.275    571.25843   -512.60615   -572.85159    72.242448    62.563796    36.042768    394.55174   -312009.85 
     210    182.18127    162903.84    72.242317    72.242318    36.042703          120     17414.65    18383.419   -34211.552     348.7562   -485.93651   -678.32566    72.242317    62.563683    36.042703    528.83918   -312005.05 
     220    183.44426    162903.38    72.242249    72.242249    36.042668          120    17403.059    17925.997   -34545.916    113.97486   -528.49272   -753.95242    72.242249    62.563623    36.042668    261.04643    -312005.4 
     230     185.8805    162903.16    72.242216    72.242217    36.042652          120    17095.877    18382.897   -34837.198   -6.0873664   -391.05155   -1259.1596    72.242216    62.563595    36.042652    213.85853    -312007.5 
     240    187.67879     162903.1    72.242208    72.242208    36.042648          120    16793.814    18435.983   -35035.743    9.6245505   -382.54086   -1047.3563    72.242208    62.563588    36.042648    64.684642   -312008.38 
     250    188.31027    162903.13    72.242213    72.242213     36.04265          120    16526.727    18488.053   -34215.799    385.70546   -87.237879    -748.2148    72.242213    62.563592     36.04265    266.32699   -312006.36 
     260    189.27122    162903.35    72.242245    72.242246    36.042667          120    16931.107    18358.827   -34884.217     568.8753   -294.71715   -662.79307    72.242245     62.56362    36.042667    135.23915   -312005.64 
     270    187.01655    162903.67    72.242292    72.242293     36.04269          120    17169.208        17613   -34828.454    653.41179   -401.01534    147.62814    72.242292    62.563661     36.04269   -15.415289   -311998.98 
     280    189.54634    162903.96    72.242335    72.242335    36.042711          120    16880.012    17306.745   -34396.748    456.61552   -594.79923     478.4763    72.242335    62.563698    36.042711   -69.997174   -312001.02 
     290    189.63586    162904.19    72.242369     72.24237    36.042729          120     16829.15    18018.294   -34933.383    396.82492   -1300.4114    552.89815    72.242369    62.563728    36.042729   -28.646504   -311998.06 
     300     191.6521     162904.4    72.242399      72.2424    36.042744          120    16999.014    18282.694   -34643.734    486.01992   -851.57031    439.62072    72.242399    62.563754    36.042744    212.65813   -311998.87 
     310    194.18555    162904.75    72.242452    72.242453     36.04277          120     17421.12    18052.305   -34208.922    871.76185    -693.4755   -37.913428    72.242452      62.5638     36.04277    421.50074   -312000.62 
     320    193.26978    162905.43    72.242553    72.242554     36.04282          120    17477.941    18402.375   -34291.163    1046.1742   -885.61201   -340.71561    72.242553    62.563887     36.04282     529.7176   -311996.19 
     330    193.06723    162906.51    72.242712    72.242713      36.0429          120    17866.966    18295.088   -34143.152    936.84775   -989.15276   -499.04302    72.242712    62.564025      36.0429    672.96726   -311993.24 
     340    193.19329    162908.07    72.242943    72.242943    36.043015          120    18040.131     18131.41   -34381.061    877.48725    -1025.604   -589.62723    72.242943    62.564224    36.043015    596.82658   -311991.08 
     350    194.88821    162909.99    72.243227    72.243227    36.043156          120    17318.956    17982.195   -35287.024    682.72307   -638.13298    -197.0239    72.243227     62.56447    36.043156    4.7090621   -311992.55 
     360    195.78955     162911.9    72.243509    72.243509    36.043297          120    17064.644    18692.339   -35293.596    271.25651   -451.50278   -178.78658    72.243509    62.564714    36.043297    154.46225   -311992.41 
     370     196.3299    162913.85    72.243797    72.243797    36.043441          120        17171    18614.768   -34997.367    708.67449   -946.02043   -36.782511    72.243797    62.564964    36.043441    262.80027   -311991.88 
     380    197.12371    162915.92    72.244103    72.244103    36.043593          120    17400.684    18521.429    -35039.79    1341.7236   -1439.4463   -227.47132    72.244103    62.565229    36.043593     294.1074   -311991.51 
     390    197.77458    162918.16    72.244435    72.244435    36.043759          120    17367.522     18787.17   -34225.304    1307.4899   -1394.4868   -341.44583    72.244435    62.565516    36.043759    643.12959   -311991.54 
     400    196.95208    162920.82    72.244828    72.244828    36.043955          120    18054.111     18527.56   -34136.213    544.56169   -1266.4298   -145.46343    72.244828    62.565857    36.043955    815.15271   -311989.31 
     410    197.10829       162924    72.245297    72.245297    36.044189          120    17645.625    18318.407   -34517.544    550.76455   -1387.5472   -27.095335    72.245297    62.566263    36.044189    482.16245   -311988.98 
     420    198.76908    162927.37    72.245796    72.245797    36.044438          120      16182.2    17679.168   -34978.365    518.37339   -1218.2472   -57.810312    72.245796    62.566695    36.044438   -372.33243    -311992.4 
     430    196.32948    162930.36    72.246237    72.246238    36.044658          120    15803.448    17318.398   -35389.049    592.08189   -1599.7057    -327.5908    72.246237    62.567077    36.044658   -755.73422   -311987.54 
     440    197.51644     162932.6    72.246568    72.246568    36.044823          120    14949.406    17698.198   -36151.194    804.28135   -1812.1384   -456.91378    72.246568    62.567364    36.044823   -1167.8634   -311990.03 
     450    198.01708    162933.88    72.246758    72.246758    36.044918          120    15246.565    18197.806   -35240.321    631.64075   -1868.7458   -651.81183    72.246758    62.567528    36.044918   -598.65001   -311991.31 
     460    197.69657    162934.66    72.246873    72.246874    36.044976          120    16546.645    18227.098   -33979.353    886.64522   -1373.7843   -784.68137    72.246873    62.567628    36.044976    264.79672   -311991.84 
     470    196.35075    162935.55    72.247005    72.247006    36.045041          120    16834.721     18369.63   -34401.483    674.18204   -1451.6852   -928.94564    72.247005    62.567742    36.045041     267.6231   -311989.87 
     480    196.70397    162936.63    72.247165    72.247165    36.045121          120    16912.112     18559.27   -34678.495    558.64253   -903.51309   -939.17818    72.247165    62.567881    36.045121    264.29547    -311992.3 
     490    196.15052    162937.89     72.24735    72.247351    36.045214          120    16801.817    18675.482   -34829.241    763.71091   -605.78052   -423.53218     72.24735    62.568042    36.045214     216.0194   -311993.43 
     500    195.38014    162939.26    72.247552    72.247553    36.045314          120    16712.786    18496.306   -35285.543    1117.8241    -1145.658   -636.12014    72.247552    62.568216    36.045314   -25.483663   -311993.73 
     510    195.71716    162940.56    72.247745    72.247746    36.045411          120    16827.953    18760.435   -35394.635    973.60921    -1357.106   -856.06615    72.247745    62.568383    36.045411    64.584462   -311996.53 
     520    194.97216    162941.91    72.247945    72.247945     36.04551          120    17846.722     19579.52   -35060.747     652.2784   -1743.0123    -1023.242    72.247945    62.568556     36.04551     788.4981   -311997.67 
     530     195.5946    162943.81    72.248226    72.248226     36.04565          120     18137.97     19702.74   -34130.936    670.15848   -1723.6245   -1154.0381    72.248226      62.5688     36.04565    1236.5915   -312001.38 
     540    195.29102    162946.61     72.24864     72.24864    36.045857          120     18020.67    19843.719   -33944.592    627.55236   -1326.1684   -1199.3499     72.24864    62.569158    36.045857    1306.5988   -312003.09 
     550    194.73139    162950.34     72.24919    72.249191    36.046132          120    17344.386     19708.75   -33713.034    652.45357   -1565.8346   -954.09811     72.24919    62.569635    36.046132    1113.3674   -312004.73 
     560    192.48781    162954.82    72.249852    72.249853    36.046462          120    17152.601    18865.662    -33947.46    724.01065   -1673.4214   -635.72704    72.249852    62.570208    36.046462    690.26776    -312003.4 
     570    191.66411    162959.65    72.250566    72.250566    36.046818          120    16506.384    18384.022   -35166.098    650.62375    -1676.209   -960.26643    72.250566    62.570826    36.046818   -91.897557   -312004.92 
     580    191.75778    162964.23    72.251243    72.251244    36.047156          120    16105.495    17686.742   -35314.107    583.30414   -1163.7161   -357.94616    72.251243    62.571413    36.047156   -507.29003   -312008.12 
     590    190.89997    162968.28    72.251842    72.251843    36.047455          120    16628.644    17825.236   -35224.334    664.62943   -1056.7212   -522.45718    72.251842    62.571931    36.047455   -256.81811   -312009.76 
     600    189.27479    162971.98    72.252388    72.252389    36.047727          120    17155.064    18183.672   -35273.344    650.16132   -1057.9691   -963.97242    72.252388    62.572404    36.047727    21.797317   -312009.44 
     610    189.29931    162975.57    72.252919    72.252919    36.047992          120    17269.993    18180.183   -34475.465    1086.6694   -1199.7408   -699.92185    72.252919    62.572864    36.047992    324.90371    -312012.6 
     620    188.66078    162979.25    72.253463    72.253463    36.048263          120    17148.096    18172.064   -34517.062    1216.1736   -1346.1879   -507.62197    72.253463    62.573335    36.048263    267.69905   -312014.28 
     630    187.51958    162983.02     72.25402    72.254021    36.048541          120    16568.645    18579.072   -34138.148    1737.5974   -1440.0638    -883.9585     72.25402    62.573817    36.048541    336.52298   -312014.39 
     640    188.47921    162986.88     72.25459    72.254591    36.048826          120    16335.771    18176.246   -34641.652    1718.2139   -1510.6789    -583.8664     72.25459    62.574311    36.048826   -43.211963    -312018.6 
     650    187.24608    162990.58    72.255137    72.255137    36.049098          120    15991.986    18078.157    -34728.72    1206.8253   -1057.6649   -397.29182    72.255137    62.574785    36.049098   -219.52576   -312018.79 
     660    185.23256    162994.01    72.255644    72.255645    36.049352          120    15740.037    18833.876   -34246.091    760.38683   -705.21006    -1035.213    72.255644    62.575224    36.049352     109.2742    -312017.7 
     670    185.18092    162997.39    72.256144    72.256145    36.049601          120    16813.019      18905.9   -34532.654     518.0645   -494.19988   -1122.4687    72.256144    62.575657    36.049601     395.4217    -312019.7 
     680    185.14453    163000.93    72.256666    72.256667    36.049862          120    16904.188    18224.812   -34966.307    890.46393   -845.19554   -778.49414    72.256666    62.576109    36.049862    54.231247   -312021.47 
     690    183.68928    163004.34    72.257171    72.257171    36.050113          120    15814.437    17923.884   -35497.648    1257.7028   -1188.5743   -1138.9288    72.257171    62.576546    36.050113   -586.44224   -312020.41 
     700    183.78041    163007.25    72.257601    72.257601    36.050328          120    16153.686    18216.292   -34866.802    1478.8921    -1212.241   -762.72758    72.257601    62.576918    36.050328   -165.60803   -312022.26 
     710     184.1085    163009.89    72.257991    72.257991    36.050522          120    16456.898    18161.631   -34772.562    1478.3058   -1101.0888   -700.57737    72.257991    62.577256    36.050522   -51.344298   -312023.87 
     720    184.73092    163012.41    72.258362    72.258363    36.050708          120    16405.093    18435.586   -34395.458    1239.3003   -1555.6339    -779.0986    72.258362    62.577578    36.050708    148.40703   -312025.89 
     730    185.29478    163014.93    72.258735    72.258736    36.050894          120     16960.22    17719.422   -33970.561    836.83236   -1752.1194   -523.00053    72.258735    62.577901    36.050894    236.36053   -312027.57 
     740    183.53459    163017.54    72.259121    72.259122    36.051086          120    17728.956     17281.82    -34483.63    526.55489   -1507.2327   -371.82797    72.259121    62.578235    36.051086    175.71551   -312024.67 
     750    184.11905    163020.16    72.259508    72.259509     36.05128          120    17310.107    17097.975   -35423.547    618.63136   -1534.6308   -679.34672    72.259508    62.578571     36.05128   -338.48822   -312026.22 
     760    184.40348    163022.44    72.259845    72.259846    36.051448          120    16743.766    16671.747   -35497.069    994.39164   -1212.9132   -830.18055    72.259845    62.578862    36.051448   -693.85187   -312027.12 
     770    181.90869    163024.09    72.260089    72.260089    36.051569          120    16607.215    16445.394   -35727.104    1068.0949   -1327.4615   -744.30896    72.260089    62.579073    36.051569   -891.49814    -312022.1 
     780    182.46339       163025    72.260224    72.260224    36.051636          120    16791.315     17148.76   -35516.765    933.99125   -1432.9129   -656.81928    72.260224     62.57919    36.051636   -525.56327   -312022.53 
     790    185.08783    163025.48    72.260294    72.260295    36.051672          120    17011.251    17764.397    -34968.95    1229.6266   -1269.5538   -778.84311    72.260294    62.579251    36.051672   -64.433933   -312026.36 
     800    183.55728    163025.83    72.260345    72.260346    36.051697          120     16609.73    17425.276   -34953.568    1045.7788   -1466.2779   -861.52517    72.260345    62.579295    36.051697   -306.18757   -312022.76 
     810    183.73481    163025.94    72.260362    72.260362    36.051705          120    16721.135     17256.92   -34785.123    859.68003   -953.76219   -646.69446    72.260362     62.57931    36.051705   -269.02286   -312022.84 
     820    184.14375    163025.82    72.260344    72.260345    36.051696          120    16259.013    17681.749   -34839.681    633.90476   -1444.9782   -887.96514    72.260344    62.579294    36.051696   -299.63965   -312022.26 
     830    185.53384    163025.44    72.260288    72.260289    36.051669          120    16040.539    17595.983    -35134.02     535.4647   -2023.3741   -685.87041    72.260288    62.579246    36.051669   -499.16566   -312023.77 
     840    184.74255    163024.68    72.260176    72.260176    36.051612          120    16042.214    17271.983       -35185    1030.3824   -1616.9357   -892.44569    72.260176    62.579148    36.051612   -623.60115   -312020.55 
     850    184.63139    163023.47    72.259997    72.259997    36.051523          120    16246.283     17410.15   -34656.849    1114.8098    -1721.436   -1009.3819    72.259997    62.578994    36.051523   -333.47202   -312018.01 
     860    186.82026    163022.04    72.259785    72.259786    36.051418          120     16337.95    17948.818   -34212.842     1710.267   -1668.0749   -758.47984    72.259785     62.57881    36.051418    24.642159   -312020.23 
     870     187.6348    163020.66    72.259581    72.259582    36.051316          120    16828.638    18250.264   -34411.801    1713.4903   -1572.1842   -787.50286    72.259581    62.578634    36.051316    222.36676   -312019.69 
     880    187.33062    163019.52    72.259413    72.259414    36.051232          120    17461.131    18063.319   -34029.174    1200.2559   -1532.8229   -1358.8106    72.259413    62.578488    36.051232    498.42545   -312016.85 
     890    188.23912    163018.77    72.259302    72.259303    36.051177          120    17257.589    17860.559   -34589.193    1223.4526   -1568.6699   -1281.7199    72.259302    62.578392    36.051177    176.31819   -312016.17 
     900    188.48514    163018.23    72.259222    72.259223    36.051137          120    17699.985     17859.67   -35031.363    1130.3931   -1664.0847   -1205.5497    72.259222    62.578323    36.051137    176.09747   -312014.41 
     910    189.72774    163017.81    72.259161    72.259161    36.051106          120    17213.784    17754.482   -35505.233    938.40675   -1422.9093   -1149.0975    72.259161    62.578269    36.051106   -178.98903   -312014.27 
     920     188.7495    163017.26     72.25908     72.25908    36.051066          120    16268.018    17756.469   -35604.446    1178.9061   -1361.1331   -516.94205     72.25908    62.578199    36.051066   -526.65326   -312010.13 
     930    190.52154    163016.35    72.258945    72.258945    36.050998          120    16344.081    17814.723   -35425.993    1291.4618   -1004.2517   -701.62997    72.258945    62.578082    36.050998   -422.39637   -312010.79 
     940    192.04093    163015.12    72.258763    72.258764    36.050908          120    16373.863    18211.521   -35284.326    865.36796   -1419.3428   -1229.4807    72.258763    62.577925    36.050908   -232.98053   -312011.33 
     950    191.99835    163013.77    72.258564    72.258564    36.050808          120    16225.259    19118.185   -35000.062    1190.9302   -1475.0728   -1239.0425    72.258564    62.577752    36.050808    114.46044   -312009.04 
     960    191.16135    163012.53    72.258381    72.258381    36.050717          120     16510.18    18656.609   -35281.977    1476.0629   -1349.7172   -1341.0016    72.258381    62.577594    36.050717   -38.396038   -312005.32 
     970     194.4675    163011.32    72.258201    72.258202    36.050627          120    17074.755    18539.287   -35511.404    1343.4086   -1362.8307    -1382.932    72.258201    62.577439    36.050627    34.212843    -312009.6 
     980    194.94556     163010.2    72.258036    72.258036    36.050545          120    17526.187    19063.687   -35119.423    1420.3825   -1171.6952   -1119.4531    72.258036    62.577295    36.050545    490.15045   -312008.38 
     990    194.76189     163009.5    72.257932    72.257933    36.050493          120     17832.41    19230.681   -34629.718    1225.8094   -1747.7684    -1075.957    72.257932    62.577206    36.050493    811.12424   -312006.64 
    1000    194.30066    163009.46    72.257926    72.257927     36.05049          120     17810.75    19027.049   -33953.262    1487.3406   -2090.7769    -650.0106    72.257926    62.577201     36.05049    961.51213   -312004.05 
    1010    195.76874    163010.15     72.25803     72.25803    36.050542          120    17902.247    18753.372   -34567.818    1217.5125    -1982.539   -769.69055     72.25803     62.57729    36.050542    695.93341   -312005.21 
    1020    195.06423    163011.44    72.258219     72.25822    36.050636          120    18103.058    19032.355   -34385.996    1301.7595   -1496.3167   -1208.7681    72.258219    62.577454    36.050636    916.47233   -312003.04 
    1030    195.43309    163013.41     72.25851    72.258511    36.050781          120    18045.144    18887.857    -34026.04    1146.1484   -952.11369   -752.14217     72.25851    62.577706    36.050781    968.98708   -312002.83 
    1040    195.93589    163016.05    72.258901    72.258901    36.050976          120    17801.584    18449.458   -34772.858    848.46528   -983.96928   -722.54519    72.258901    62.578044    36.050976    492.72785   -312003.24 
    1050    195.75339    163018.99    72.259335    72.259335    36.051193          120    17301.647    17751.214   -35570.545     1023.961    -710.8318   -1213.0351    72.259335     62.57842    36.051193   -172.56149   -312002.06 
    1060    194.55996    163021.71    72.259737    72.259738    36.051394          120    16702.469    17491.587   -35758.819    1403.4593   -1198.7147   -1469.3756    72.259737    62.578769    36.051394   -521.58793   -311999.64 
    1070    195.90649    163023.97     72.26007    72.260071     36.05156          120    16581.843    17560.635   -35072.371    1330.5011   -1440.7922   -1724.5662     72.26007    62.579057     36.05156   -309.96428   -312002.67 
    1080     195.1999    163025.91    72.260358    72.260358    36.051703          120    17006.839    17927.796   -34834.131    1273.4729   -1308.4079   -1275.4018    72.260358    62.579306    36.051703     33.50146   -312001.39 
    1090     195.3673    163027.78    72.260634    72.260634    36.051841          120    16430.827    18080.601    -34365.45    1232.4124   -1569.4119   -1153.5468    72.260634    62.579545    36.051841    48.659262   -312001.96 
    1100    196.16029    163029.65     72.26091     72.26091    36.051979          120    16453.469    18780.042   -34467.198    498.38582    -1858.852    -982.0343     72.26091    62.579784    36.051979    255.43765   -312004.02 
    1110    197.53075    163031.66    72.261207    72.261208    36.052127          120     17111.31    18771.469   -34797.836    607.82271   -1889.8619   -1214.0586    72.261207    62.580042    36.052127    361.64766   -312007.98 
    1120    196.35823    163033.89    72.261536    72.261536    36.052291          120    17142.114    18245.198   -34762.089    972.80881   -1377.1146   -932.54306    72.261536    62.580326    36.052291    208.40765   -312006.55 
    1130    196.70795     163036.2    72.261877    72.261878    36.052461          120    17292.797    18104.135   -35086.649    1142.5044   -1556.1519   -916.12424    72.261877    62.580622    36.052461    103.42752   -312008.72 
    1140    194.37854    163038.55    72.262225    72.262226    36.052635          120    17776.384    18423.164   -35007.809    1019.3348   -1435.4953   -763.67102    72.262225    62.580923    36.052635    397.24656   -312005.35 
    1150    194.44079    163041.11    72.262603    72.262603    36.052823          120    17242.292    18515.743   -35105.899    919.94736   -1110.8004   -1065.3519    72.262603     62.58125    36.052823    217.37851   -312007.04 
    1160     195.0395    163043.74    72.262992    72.262993    36.053018          120    17721.678    17555.845   -35580.776    848.19762   -1097.3545   -791.13706    72.262992    62.581588    36.053018   -101.08454   -312010.09 
    1170    194.17216    163046.25    72.263362    72.263363    36.053202          120    17729.964    17466.418   -35243.792    1006.1468   -399.62124   -858.81868    72.263362    62.581908    36.053202   -15.803475   -312010.35 
    1180     193.0435    163048.64    72.263716    72.263717    36.053379          120    17151.953     17425.52    -35034.24    1236.5996   -534.92229   -1221.3249    72.263716    62.582215    36.053379   -152.25548   -312010.41 
    1190    191.14033    163050.83    72.264039    72.264039     36.05354          120    17258.347    17067.981   -35312.155    898.95467   -1347.0269   -247.86667    72.264039    62.582494     36.05354    -328.6091   -312008.94 
    1200    192.01315     163052.7    72.264315    72.264316    36.053678          120    16960.688    17093.253    -34906.68    1032.5089   -1731.1828   -133.29508    72.264315    62.582733    36.053678   -284.24625   -312012.87 
    1210     190.8417    163054.28    72.264549    72.264549    36.053794          120    16917.889    17281.111   -35155.918    1364.1563   -2148.9642    -39.58283    72.264549    62.582936    36.053794   -318.97278   -312013.26 
    1220    190.21753    163055.54    72.264736    72.264736    36.053887          120    16777.855    17009.705   -35519.891    1547.1467   -1797.9926   -521.48949    72.264736    62.583098    36.053887   -577.44361   -312014.57 
    1230    188.37736    163056.33    72.264851    72.264852    36.053945          120    16555.986    17639.255   -36059.865    1596.2508   -1303.4474   -889.88156    72.264851    62.583197    36.053945    -621.5412   -312013.37 
    1240    188.69195     163056.6    72.264892    72.264892    36.053965          120    16594.988    17994.055    -35585.62    1521.3725   -1388.0242   -548.09138    72.264892    62.583233    36.053965    -332.1923    -312016.6 
    1250    189.48146    163056.62    72.264895    72.264895    36.053967          120    17312.818    17965.316   -34754.872    1149.6665   -1254.0392   -757.65114    72.264895    62.583235    36.053967    174.42073   -312020.14 
    1260    189.45838    163056.78    72.264918    72.264919    36.053978          120    17798.153    17933.887   -33799.041    1258.6822    -1022.952   -1442.5314    72.264918    62.583255    36.053978     644.3332   -312022.44 
    1270    188.97282    163057.37    72.265005    72.265005    36.054022          120     17279.07     17599.74   -34506.682    1334.4992   -704.26779   -1409.5572    72.265005     62.58333    36.054022    124.04245   -312023.58 
    1280     187.6023    163058.08     72.26511    72.265111    36.054074          120    17235.696    17637.103   -34530.888    1050.0463   -1230.7773   -1269.7839     72.26511    62.583422    36.054074    113.97024   -312023.01 
    1290    187.25793    163058.86    72.265226    72.265227    36.054132          120    17031.863    17890.229   -34389.506    1229.0531   -1460.0502    -1065.269    72.265226    62.583522    36.054132     177.5287   -312024.06 
    1300    186.28287    163059.73    72.265354    72.265355    36.054196          120    16751.817    18173.463   -35329.462    975.89334    -2281.488    -1013.553    72.265354    62.583633    36.054196   -134.72769   -312023.65 
    1310    186.16991    163060.52    72.265471    72.265472    36.054254          120    16774.146    18106.906   -34645.675    1122.3177   -2174.9471   -852.98459    72.265471    62.583734    36.054254    78.459124   -312025.45 
    1320    185.67127    163061.33    72.265591    72.265591    36.054314          120    17209.783    17949.792   -34875.962    1418.3586   -1306.4343   -918.51415    72.265591    62.583838    36.054314    94.537864   -312026.09 
    1330    185.26962    163062.19    72.265718    72.265719    36.054378          120     17352.15    18171.405   -34887.471    1756.0736   -1039.9349   -1077.2324    72.265718    62.583948    36.054378    212.02797   -312026.39 
    1340    186.02628    163063.19    72.265865    72.265866    36.054451          120    17695.209    18101.453   -34900.167     1935.604   -994.93283   -1010.5054    72.265865    62.584076    36.054451    298.83145    -312029.1 
    1350    185.30607    163064.41    72.266045    72.266046    36.054541          120    17755.727    17967.321   -34586.066    1599.6738   -507.93141    -902.6124    72.266045    62.584231    36.054541    378.99408   -312027.82 
    1360     184.7039    163065.86     72.26626    72.266261    36.054648          120    17597.026     17798.47   -35187.392    1417.4454   -301.95073   -657.17475     72.26626    62.584418    36.054648     69.36787   -312027.87 
    1370    185.33781    163067.31    72.266474    72.266475    36.054755          120     17140.97     17209.03   -36229.014    1394.7962    -669.5201   -642.63076    72.266474    62.584603    36.054755   -626.33781   -312029.82 
    1380    183.94389    163068.21    72.266606    72.266607    36.054821          120    16486.461    16475.248     -37019.5    1243.4308   -862.70038   -850.33657    72.266606    62.584718    36.054821   -1352.5968   -312027.12 
    1390    185.26632    163068.05    72.266582    72.266583    36.054809          120    16406.681    16909.885   -37089.737    1437.0592    -1573.218   -1223.6761    72.266582    62.584697    36.054809   -1257.7236   -312029.97 
    1400    186.65387    163066.88    72.266411    72.266411    36.054723          120     16768.61    17553.826   -36617.723    1279.6236    -1993.272   -1204.7529    72.266411    62.584548    36.054723   -765.09549   -312032.79 
    1410    182.92372    163065.16    72.266156    72.266157    36.054596          120    16967.117    18307.501   -35630.794    1292.5174   -2438.4015   -819.74425    72.266156    62.584328    36.054596   -118.72521   -312025.37 
    1420    184.50102    163063.34    72.265887    72.265888    36.054462          120    16415.344      18735.8   -35578.205    828.15918   -2156.1137    -972.7276    72.265887    62.584095    36.054462   -142.35373   -312028.29 
    1430     185.8784    163061.46     72.26561    72.265611    36.054324          120     16648.65    18698.387   -35537.533    826.64538   -1307.1697   -1066.7171     72.26561    62.583855    36.054324   -63.498453   -312030.31 
    1440    185.49153    163059.59    72.265334    72.265334    36.054186          120    16784.968    18758.583   -35556.106    888.62124   -733.04384   -902.24548    72.265334    62.583615    36.054186   -4.1852708   -312028.44 
    1450    186.27707    163057.73    72.265058    72.265059    36.054048          120     16456.01    18269.288   -36130.584    1372.1523   -641.85387   -1039.3894    72.265058    62.583377    36.054048   -468.42876   -312029.52 
    1460    185.50988    163055.58    72.264741    72.264741     36.05389          120     16729.03    17718.604    -35897.76    1806.8427   -399.38059   -1216.2979    72.264741    62.583102     36.05389   -483.37516   -312027.12 
    1470    185.19439     163053.1    72.264375    72.264376    36.053708          120     16676.46    17475.051   -35419.936    1600.5501   -750.01021   -1118.8149    72.264375    62.582785    36.053708    -422.8084   -312025.08 
    1480    187.16042    163050.38    72.263973    72.263973    36.053507          120     16999.22    17858.062   -34955.717    1539.2824    -934.1078   -1186.2162    72.263973    62.582437    36.053507   -32.811608    -312027.7 
    1490    187.73623    163047.69    72.263575    72.263576    36.053308          120    17088.598    18011.756   -34639.089    1877.3687   -1135.5571   -971.41065    72.263575    62.582092    36.053308    153.75504   -312027.21 
    1500    186.65072    163045.22     72.26321    72.263211    36.053127          120    17874.122    18238.654   -34550.938     1930.351   -1714.0841   -882.48211     72.26321    62.581777    36.053127    520.61265   -312023.11 
    1510    186.62888    163043.25    72.262919    72.262919    36.052981          120    18378.194    18891.564   -34435.511    1923.6466   -2141.7261   -857.05544    72.262919    62.581524    36.052981    944.74867   -312021.94 
    1520    187.73642    163042.03    72.262739    72.262739    36.052891          120    17707.026    18551.446   -34426.458    2206.9857   -2055.3332   -1022.6199    72.262739    62.581368    36.052891    610.67099   -312022.23 
    1530    187.68681    163041.36     72.26264    72.262641    36.052842          120    17101.913     18705.31   -34670.871    2377.2974   -1512.5725   -1165.2824     72.26264    62.581283    36.052842    378.78374   -312020.07 
    1540    189.30857    163041.04    72.262593    72.262593    36.052818          120    17476.939    18599.837   -34732.491    1926.8231   -1044.0632   -1089.4379    72.262593    62.581242    36.052818    448.09519   -312021.07 
    1550    190.58843    163041.07    72.262597    72.262598     36.05282          120    17462.934    18451.448   -34919.505     1680.888   -1299.6978   -1063.4356    72.262597    62.581245     36.05282    331.62548   -312021.38 
    1560    189.37719    163041.37    72.262642    72.262642    36.052843          120    16788.372    18521.808   -34785.728    1258.8664   -1101.6293   -994.27049    72.262642    62.581284    36.052843    174.81727   -312017.14 
    1570     191.1139    163041.81    72.262706    72.262707    36.052875          120    16343.326    18471.798   -34458.084    1117.0046   -1356.2618   -711.27714    72.262706     62.58134    36.052875    119.01336   -312018.73 
    1580    191.41284     163042.3     72.26278     72.26278    36.052912          120    16695.683    18023.501   -35189.909    1391.8194   -1127.9346    -974.9455     72.26278    62.581403    36.052912   -156.90843   -312017.77 
    1590    191.81773    163042.67    72.262833    72.262834    36.052938          120    16549.219    18114.409   -35719.614    1318.6947   -1232.4551   -1385.9451    72.262833     62.58145    36.052938   -351.99515   -312016.44 
    1600    190.63134    163042.78     72.26285    72.262851    36.052947          120    16690.935    18351.771   -35033.204    1085.3034    -1273.645   -1006.8731     72.26285    62.581465    36.052947    3.1674282   -312012.94 
    1610    193.31644    163042.89    72.262867    72.262867    36.052955          120    17109.745    18046.808   -33953.319    956.99117   -1108.1558   -337.67005    72.262867    62.581479    36.052955    401.07778   -312016.13 
    1620    192.36907     163043.3    72.262927    72.262927    36.052985          120    17297.287    18294.275   -34445.638    1357.6098   -1160.1764   -712.03753    72.262927    62.581531    36.052985    381.97452   -312012.32 
    1630    192.35509    163043.99    72.263028    72.263029    36.053036          120    17225.913    18192.107   -34514.442    1163.5561   -1129.4981   -1572.8659    72.263028    62.581619    36.053036     301.1927   -312010.91 
    1640     191.9754    163044.95     72.26317    72.263171    36.053106          120    17781.617    18623.587   -34258.354    1423.9431   -1178.9657   -1366.4785     72.26317    62.581742    36.053106    715.61688   -312008.37 
    1650    194.66023    163046.42    72.263387    72.263388    36.053215          120     18198.77    18262.701   -34354.821    1417.1206   -1423.6405   -1797.1232    72.263387     62.58193    36.053215    702.21691   -312012.17 
    1660    194.13927    163048.42    72.263683    72.263683    36.053362          120    18295.354     18873.69   -34915.973    1392.3747   -1814.0171   -1676.0444    72.263683    62.582186    36.053362    751.02378   -312009.78 
    1670    194.91264    163050.94    72.264055    72.264055    36.053548          120    18120.014    18946.869   -35405.323    1181.6634   -1563.0754   -1415.2447    72.264055    62.582508    36.053548    553.85371   -312010.41 
    1680    195.02953    163053.86    72.264486    72.264487    36.053763          120    18097.599    18779.819   -34707.819    890.03434   -1244.9142   -1711.5025    72.264486    62.582882    36.053763    723.19971   -312010.11 
    1690    194.76656    163057.27     72.26499    72.264991    36.054014          120    17812.879    18987.411   -34345.438     1029.286   -1204.3219   -1480.4066     72.26499    62.583318    36.054014    818.28407   -312009.08 
    1700    194.56213    163061.24    72.265578    72.265578    36.054308          120    17870.132    18484.583   -34272.834    746.17399   -968.38979   -1578.3339    72.265578    62.583827    36.054308    693.96035   -312008.83 
    1710     195.8459    163065.62    72.266224    72.266224     36.05463          120    17546.355    18119.504   -35645.877    802.48854    -1082.678   -1504.4512    72.266224    62.584386     36.05463    6.6603634   -312010.95 
    1720    195.85916     163069.9    72.266856    72.266857    36.054945          120    17209.453    18323.018   -36272.749    849.21912   -1457.6276   -1476.4083    72.266856    62.584934    36.054945   -246.75918   -312010.55 
    1730     193.3358    163073.86    72.267441    72.267441    36.055237          120    17148.519    18178.959   -36596.897    1139.0152   -868.27479   -1493.4362    72.267441     62.58544    36.055237   -423.13957   -312006.23 
    1740    193.89267    163077.36    72.267959    72.267959    36.055495          120    17291.098     17656.49    -36726.55    878.03342   -1495.4667   -1130.3675    72.267959    62.585889    36.055495   -592.98716   -312007.57 
    1750    194.38118     163080.3    72.268393    72.268394    36.055712          120    17008.001    17666.115   -36502.228     1214.843   -1360.8516   -936.28444    72.268393    62.586265    36.055712   -609.37067   -312009.05 
    1760    194.71649    163082.68    72.268744    72.268744    36.055887          120    16497.815    17798.856   -36115.822    1449.7298   -1146.3998   -1371.7044    72.268744    62.586568    36.055887   -606.38373   -312010.63 
    1770    194.77123    163084.49    72.269011    72.269012    36.056021          120    16604.569    17693.271   -36256.459     1245.323   -1169.0502   -1206.7669    72.269011      62.5868    36.056021   -652.87315   -312011.69 
    1780    194.57385    163085.75    72.269197    72.269198    36.056113          120    16586.236    17896.009   -35458.949    2029.4474   -779.12855   -1099.2995    72.269197    62.586961    36.056113   -325.56801   -312012.34 
    1790    193.57401    163086.72     72.26934    72.269341    36.056185          120    17156.615      17926.3   -34883.496    1910.2293   -799.54944   -1534.9249     72.26934    62.587085    36.056185    66.472875    -312011.4 
    1800     194.4812    163087.67    72.269482    72.269482    36.056255          120    17015.853    17776.832   -34851.642    1611.7181   -863.29517   -1511.5065    72.269482    62.587208    36.056255    -19.65234   -312014.84 
    1810    192.09573    163088.58    72.269616    72.269616    36.056322          120    16993.065    17054.769   -35175.994    1431.0747   -931.22245    -1526.419    72.269616    62.587324    36.056322   -376.05367   -312011.39 
    1820    190.81177    163089.16    72.269701    72.269702    36.056365          120    17023.085    16537.154   -35683.709    1315.9626   -958.96734   -1977.5697    72.269701    62.587398    36.056365    -707.8235   -312010.73 
    1830    192.03599    163089.19    72.269705    72.269706    36.056367          120    16941.246    16583.335   -35506.001    1294.3891   -1256.7696   -1721.0805    72.269705    62.587401    36.056367   -660.47337   -312015.22 
    1840    192.86505    163088.66    72.269628    72.269628    36.056328          120    16797.858    16796.572   -36026.136    1298.4895   -1327.1392     -795.165    72.269628    62.587334    36.056328   -810.56873   -312018.46 
    1850    191.62937    163087.55    72.269463    72.269464    36.056246          120    16964.306    17592.665   -35766.129    1195.4128   -1739.8314   -521.17137    72.269463    62.587192    36.056246   -403.05277   -312017.62 
    1860    193.18497    163086.07    72.269244    72.269245    36.056137          120    16804.198    17320.069   -36013.697    1146.5578   -2158.3491   -625.91629    72.269244    62.587002    36.056137   -629.81001   -312022.61 
    1870    189.58599    163084.13    72.268958    72.268959    36.055994          120    16513.059    17271.372   -35998.884    1158.9899   -1593.3173   -644.59515    72.268958    62.586754    36.055994   -738.15085   -312017.24 
    1880    190.42048    163081.68    72.268596    72.268597    36.055813          120    16764.531    17256.724   -35814.701    578.19229   -970.84362   -783.75529    72.268596    62.586441    36.055813   -597.81528   -312020.67 
    1890    189.05477    163078.81    72.268173    72.268173    36.055602          120    16837.676    17145.552   -35384.528    767.54706   -641.41249   -628.99466    72.268173    62.586074    36.055602   -467.09995   -312019.93 
    1900    189.68571    163075.63    72.267703    72.267703    36.055368          120    16532.245    17669.128   -35494.034    732.15686   -370.23284   -478.95733    72.267703    62.585667    36.055368   -430.88704   -312023.33 
    1910    188.29742    163072.15    72.267188    72.267189    36.055111          120     16035.74    17920.698   -36057.858    1225.4817   -966.53594   -876.21974    72.267188    62.585222    36.055111   -700.47359   -312022.25 
    1920    187.22677    163068.22    72.266607    72.266608    36.054821          120    16034.408    17826.118   -35982.128    1558.7707   -976.50768   -1428.5428    72.266607    62.584719    36.054821   -707.20055   -312021.34 
    1930     188.0523    163063.87    72.265965    72.265966    36.054501          120    16666.239    18254.591   -35123.679    1633.1762   -1099.4085    -1618.515    72.265965    62.584162    36.054501   -67.616469   -312024.61 
    1940    186.35799    163059.57    72.265331    72.265332    36.054184          120    17310.866    18403.457   -34285.452    2007.0128   -1339.2478   -1327.9031    72.265331    62.583613    36.054184    476.29022   -312022.73 
    1950    186.76059    163055.73    72.264763    72.264764    36.053901          120    17560.617    18400.419   -34324.789    1908.3861   -1587.3902   -888.42959    72.264763    62.583121    36.053901    545.41555   -312024.62 
    1960    186.33555    163052.43    72.264276    72.264276    36.053658          120    17961.084    18961.102   -34917.667    2163.4866   -1960.4307   -993.00258    72.264276    62.582699    36.053658    668.17293   -312025.42 
    1970    186.85142    163049.73    72.263877    72.263877    36.053459          120    17686.076    18778.498   -35047.208    2173.5393   -1906.7607   -1565.0167    72.263877    62.582354    36.053459    472.45525   -312028.37 
    1980    187.29799    163047.47    72.263543    72.263543    36.053292          120    17260.007    18439.729   -35413.523    2238.7478   -1209.2557   -1570.6257    72.263543    62.582064    36.053292     95.40419   -312030.14 
    1990    186.97308    163045.36    72.263231    72.263232    36.053137          120    17023.019    18865.837   -35760.358    1859.2515   -1154.7434   -796.20221    72.263231    62.581795    36.053137     42.83232   -312030.56 
    2000    186.74653    163043.36    72.262935    72.262935    36.052989          120     17665.12    18863.538   -35788.154    1841.3236   -1652.5892   -361.19285    72.262935    62.581538    36.052989    246.83468   -312030.86 
    2010    185.90755    163041.59    72.262674    72.262674    36.052859          120    18285.819    18222.628   -35873.764    1766.6459   -1169.2948   -672.26114    72.262674    62.581312    36.052859    211.56115   -312029.99 
    2020     185.9298    163040.07    72.262449     72.26245    36.052747          120    18319.223    17865.917   -34817.665    1579.2931   -1341.3694    -920.5453    72.262449    62.581118    36.052747    455.82474   -312030.29 
    2030    185.17971    163038.95    72.262284    72.262284    36.052664          120    17930.109    18599.192   -34522.963    1405.6813   -1407.7078   -1375.5713    72.262284    62.580974    36.052664    668.77941   -312029.37 
    2040    185.15229    163038.35    72.262195    72.262195     36.05262          120    17336.373    18613.853   -35091.424    944.29416   -1105.9142   -1446.3241    72.262195    62.580897     36.05262    286.26715   -312029.72 
    2050    186.33119    163037.98    72.262141    72.262142    36.052593          120    16730.036    18147.325   -35710.789    1068.0943   -1493.3916   -969.89998    72.262141    62.580851    36.052593   -277.80936   -312032.19 
    2060    185.92373    163037.44    72.262061    72.262061    36.052553          120    17302.401     16988.69   -35639.244    952.51449   -1755.0499   -834.13036    72.262061    62.580781    36.052553   -449.38448   -312031.21 
    2070    185.14844    163036.57    72.261932    72.261932    36.052489          120    17639.927    16960.708   -35658.121    934.29002   -1820.9257   -1154.1531    72.261932    62.580669    36.052489   -352.49545    -312029.2 
    2080    186.21293    163035.46    72.261768    72.261769    36.052407          120    18496.363    17193.655   -35578.412    1182.7269   -1427.7951   -875.46492    72.261768    62.580527    36.052407    37.201904   -312031.02 
    2090     185.7182    163034.39    72.261611    72.261612    36.052329          120    18190.848     17877.66   -35155.045    1472.1176   -1294.7501   -514.05287    72.261611    62.580391    36.052329    304.48755   -312029.31 
    2100    186.09886    163033.61    72.261495    72.261495     36.05227          120    17865.244    18068.208   -34438.698    1380.6931    -1271.799   -276.93551    72.261495    62.580291     36.05227    498.25136      -312029 
    2110    187.80374     163033.2    72.261435    72.261435    36.052241          120     17276.03    18198.909   -34532.457    1163.1131   -826.54005   -770.32048    72.261435    62.580239    36.052241    314.16053   -312031.73 
    2120    188.30316    163033.06    72.261413    72.261414     36.05223          120     16960.51    17887.774   -34769.895    1144.1038   -951.66349   -597.96316    72.261413     62.58022     36.05223    26.129796    -312031.6 
    2130     185.9456    163032.95    72.261397    72.261398    36.052222          120    16838.242    17628.143   -34707.445     1293.741   -1358.2869   -344.16583    72.261397    62.580206    36.052222   -80.353426   -312025.68 
    2140    188.18973    163032.78    72.261373    72.261374     36.05221          120     16661.73    17218.228   -34427.269    1440.1033   -1493.4748   -373.30187    72.261373    62.580185     36.05221   -182.43693   -312029.05 
    2150    189.10278    163032.48    72.261328    72.261329    36.052188          120    16611.482    17346.334   -34735.019     1218.447   -1154.2134   -950.77748    72.261328    62.580147    36.052188   -259.06764   -312029.38 
    2160    188.05028    163031.98    72.261254    72.261255     36.05215          120    16256.445    17633.661   -34526.682    886.74923   -1255.1957   -1167.0739    72.261254    62.580082     36.05215   -212.19172   -312026.07 
    2170    188.74106    163031.31    72.261155    72.261156    36.052101          120    16271.873    17565.988   -34238.136    1003.0373    -1439.789   -1213.8767    72.261155    62.579997    36.052101   -133.42497   -312025.82 
    2180    189.32575    163030.58    72.261047    72.261048    36.052047          120    16125.462    18560.748   -33943.442    1035.4526   -1258.8719   -1319.6644    72.261047    62.579903    36.052047    247.58946   -312025.54 
    2190     188.3128    163030.08    72.260974    72.260974     36.05201          120    17212.556    18792.797   -33938.723    1247.9303   -1041.4975   -769.54874    72.260974    62.579839     36.05201    688.87671   -312022.05 
    2200    190.02527    163030.12     72.26098     72.26098    36.052014          120    17472.744    18662.434   -33760.328    878.88477   -841.39746   -845.05134     72.26098    62.579845    36.052014    791.61676   -312023.97 
    2210    189.25033    163030.77    72.261076    72.261077    36.052062          120      17357.2    18333.873   -34344.998    1141.3237   -719.99075   -380.20929    72.261076    62.579928    36.052062    448.69191    -312021.3 
    2220    192.17739    163031.78    72.261224    72.261225    36.052136          120    17202.798    18015.309   -35071.497    1307.7153   -899.33358   -601.16163    72.261224    62.580057    36.052136    48.869817    -312025.3 
    2230    189.93006    163032.84    72.261381    72.261381    36.052214          120      17256.7     17983.72   -34769.492    1050.1578   -1402.3872   -918.47308    72.261381    62.580192    36.052214     156.9758   -312019.12 
    2240    191.89711       163034    72.261552    72.261553    36.052299          120    17517.007     18007.55   -34253.786    1346.8184    -1115.531    -789.8854    72.261552     62.58034    36.052299    423.59018   -312021.73 
    2250    190.42199    163035.46    72.261769    72.261769    36.052407          120    17823.847    18106.833   -34041.464    1472.5642   -1120.3862   -797.19772    72.261769    62.580528    36.052407    629.73845   -312017.53 
    2260    191.97922    163037.43     72.26206     72.26206    36.052552          120    18027.254    18788.249   -33522.552    2003.6023   -968.43194   -767.44864     72.26206     62.58078    36.052552    1097.6502   -312018.91 
[...]
   99200    190.54224    163405.95    72.316464    72.316465    36.079695          120    18773.312     18710.79   -36964.428     1715.391   -1573.1824    1309.1275    72.316464    62.627896    36.079695    173.22476   -312071.13 
   99210    189.33411     163393.2    72.314584    72.314584    36.078757          120    19096.022    18658.979   -36960.499    1666.9261    -1459.831    1258.6351    72.314584    62.626267    36.078757    264.83418    -312069.2 
   99220    192.77413    163380.65    72.312731    72.312732    36.077833          120     19399.73    18515.871   -37230.193    919.31013   -1608.6587    1675.2063    72.312731    62.624663    36.077833      228.469   -312075.97 
   99230    188.75551    163368.29    72.310909    72.310909    36.076924          120    19073.974    18775.384    -36743.61    701.37957    -1327.067    1874.3757    72.310909    62.623084    36.076924    368.58248   -312067.98 
   99240    191.15845    163356.25    72.309131    72.309132    36.076037          120    18961.003    18817.711   -35921.218    1296.9599   -1027.3018    1531.0974    72.309131    62.621545    36.076037    619.16541   -312073.24 
   99250    190.10547    163344.72     72.30743    72.307431    36.075188          120    19732.129    19134.758   -35986.229    855.84706    -1101.302    1221.5285     72.30743    62.620072    36.075188    960.21922   -312070.96 
   99260    188.68953    163333.95    72.305841    72.305841    36.074395          120    19406.471    19053.457   -35728.335    874.64985   -1333.3707    1533.3615    72.305841    62.618696    36.074395    910.53074   -312068.32 
   99270    189.76817    163323.93    72.304363    72.304363    36.073658          120    19441.778    19346.716   -36101.485    1287.3579   -892.05939    1690.9182    72.304363    62.617416    36.073658    895.66965   -312070.46 
   99280    191.48422    163314.62    72.302989     72.30299    36.072973          120    19237.125    19244.239   -36827.975    1347.2053   -820.80876    1895.0642    72.302989    62.616226    36.072973    551.12967   -312074.08 
   99290    190.58854    163305.75     72.30168     72.30168    36.072319          120    18843.794     18809.42   -37634.259    1260.7575   -675.67696    2059.5994     72.30168    62.615092    36.072319    6.3182498   -312072.71 
   99300    190.89385    163296.95    72.300381    72.300381    36.071671          120    19019.905    18645.707    -37101.39    1471.7107   -1319.0739    1755.1126    72.300381    62.613967    36.071671    188.07381   -312073.23 
   99310    188.44073    163288.33    72.299109    72.299109    36.071037          120    19916.669    18553.716    -36016.76    1502.3232   -1777.5396    2255.0775    72.299109    62.612865    36.071037    817.87508   -312068.68 
   99320    190.54635    163280.35    72.297931    72.297931    36.070449          120    19930.853    19454.425   -35563.959       1596.9   -1297.2257    2407.9273    72.297931    62.611845    36.070449    1273.7729   -312072.87 
   99330     189.3733    163273.38    72.296902    72.296902    36.069935          120    19369.268    19881.796   -35633.034    1141.7935   -1115.2839     1676.099    72.296902    62.610954    36.069935    1206.0099   -312070.99 
   99340    189.29831    163267.39    72.296018    72.296018    36.069495          120    19328.928    19516.828   -35772.062     1050.435   -1247.1341    1735.8046    72.296018    62.610189    36.069495    1024.5647   -312071.14 
   99350    189.50376    163262.28    72.295263    72.295264    36.069118          120    19476.777    19472.146   -35136.149    1309.8059   -1676.1691    1713.5869    72.295263    62.609535    36.069118    1270.9247   -312071.71 
   99360    191.74184    163258.18    72.294659     72.29466    36.068817          120    19573.353    19282.374    -35058.97    1442.5981   -1747.5831    1851.9036    72.294659    62.609012    36.068817    1265.5857   -312075.53 
   99370    191.05815    163255.14     72.29421     72.29421    36.068593          120     19836.84     19117.64   -35124.512    1329.5468   -1927.1982    1617.0824     72.29421    62.608623    36.068593    1276.6559   -312073.85 
   99380    190.70594    163253.14    72.293914    72.293915    36.068445          120    20015.456    19175.345   -35515.442    920.03432   -2092.2559    1281.1164    72.293914    62.608367    36.068445    1225.1195   -312073.09 
   99390    189.29966    163252.12    72.293765    72.293765     36.06837          120    19516.557    19672.705   -36253.001    1175.5798   -2024.7242    1337.2522    72.293765    62.608237     36.06837    978.75387   -312070.39 
   99400    189.41494     163251.9    72.293732    72.293733    36.068354          120    19488.873    18959.007   -36187.389     1243.046   -1973.3799    1898.6523    72.293732    62.608209    36.068354    753.49712   -312070.59 
   99410    188.70638    163252.36      72.2938      72.2938    36.068388          120    20176.655    19126.738   -35480.724    1222.0057   -2205.2357    1399.4397      72.2938    62.608268    36.068388    1274.2229   -312069.39 
   99420    190.51389    163253.82    72.294015    72.294016    36.068495          120    20091.333    19513.572   -35482.203    1731.1828   -1859.1969    1279.9758    72.294015    62.608454    36.068495    1374.2339   -312073.36 
   99430    188.85683    163256.41    72.294398    72.294398    36.068686          120    19995.118    19283.543   -35590.121    1108.8518   -1647.0346    1773.0413    72.294398    62.608786    36.068686    1229.5135   -312070.54 
   99440    190.52693    163259.99    72.294926    72.294926     36.06895          120    19452.608    19012.308   -35949.719    1138.2392   -1519.6977    1399.0696    72.294926    62.609243     36.06895    838.39884   -312073.79 
   99450    190.06096     163264.3    72.295562    72.295563    36.069267          120     19893.59    19392.096   -36326.737     1410.757    -1717.576    1383.1714    72.295562    62.609794    36.069267    986.31623   -312073.49 
   99460    188.98618    163269.42    72.296318    72.296319    36.069644          120    19999.157     19416.94   -35951.482     1356.857   -1708.8977     1963.524    72.296318    62.610449    36.069644    1154.8719    -312071.5 
   99470    189.69729    163275.47     72.29721    72.297211     36.07009          120     19920.18    19518.355   -36382.225     1622.193   -2220.0031    1794.3971     72.29721    62.611221     36.07009    1018.7701   -312073.21 
   99480    191.24851    163282.38     72.29823    72.298231    36.070598          120    20156.293    19695.454   -36295.962    1741.8709   -2103.2733     1677.804     72.29823    62.612105    36.070598    1185.2618   -312076.47 
   99490     189.4434    163290.26    72.299393    72.299394    36.071179          120    20235.766    19409.064   -35677.048    1583.7814   -1888.7887    1073.6747    72.299393    62.613112    36.071179    1322.5938   -312073.11 
   99500    187.80644    163299.22    72.300716    72.300716    36.071838          120    19999.318    19640.836   -35654.597    1467.6027   -2116.3741    845.77511    72.300716    62.614257    36.071838    1328.5192   -312070.83 
   99510      188.832    163309.28    72.302201    72.302201    36.072579          120    19734.867    19707.539   -35647.775    1142.2466   -1637.5189    1258.3335    72.302201    62.615543    36.072579    1264.8772   -312073.61 
   99520    188.82775    163320.37    72.303838    72.303838    36.073396          120    19705.101    19786.573   -36380.789    868.00422    -1516.992    1378.5358    72.303838    62.616961    36.073396    1036.9618   -312074.03 
   99530    188.59594    163332.34    72.305604    72.305605    36.074277          120     20367.59    19779.505    -36812.21    1113.1338   -1166.8108    1297.9138    72.305604    62.618491    36.074277    1111.6285   -312073.76 
   99540    188.68758    163345.19    72.307499      72.3075    36.075223          120    19774.516    19340.841   -36464.745    1369.9518   -1233.4584    1466.5328    72.307499    62.620132    36.075223    883.53741   -312073.97 
   99550    188.44863    163358.82     72.30951    72.309511    36.076226          120    19946.342    19494.153   -35817.847    1646.5955   -886.84528    1877.1092     72.30951    62.621873    36.076226    1207.5492   -312074.18 
   99560     188.0219     163373.4    72.311662    72.311662      36.0773          120    20058.598    19488.956   -36157.707     1170.087   -1304.2537    2263.7809    72.311662    62.623737      36.0773    1129.9489   -312073.41 
   99570    188.04557    163388.89    72.313948    72.313948     36.07844          120    19479.465    19193.645   -36304.043     1238.578   -1607.2152    2120.7161    72.313948    62.625717     36.07844    789.68918   -312073.35 
   99580     189.3384    163405.05    72.316331    72.316332    36.079629          120    19153.018    18920.286    -36631.07    946.81823   -1400.6544    2120.9509    72.316331    62.627781    36.079629    480.74507   -312075.56 
   99590     187.4723    163421.61    72.318774    72.318775    36.080848          120    19096.599    18518.076   -37133.103    1241.8198   -1377.4369    1852.9407    72.318774    62.629896    36.080848      160.524   -312072.53 
   99600    189.13136    163438.28    72.321233    72.321234    36.082075          120    18312.627    17929.993   -37276.694    1077.7975   -1403.7722    1682.1884    72.321233    62.632026    36.082075   -344.69173   -312075.83 
   99610    187.77315    163454.65    72.323647    72.323648    36.083279          120    17728.075    17203.813   -37727.956    1284.3808   -1555.1155    1945.4407    72.323647    62.634116    36.083279    -932.0226   -312073.28 
   99620    186.05534     163470.3    72.325956    72.325957    36.084431          120    18171.302    17399.655   -37886.426    1766.3183   -1315.6436    1857.9347    72.325956    62.636116    36.084431   -771.82294   -312069.45 
   99630    189.61599    163485.35    72.328175    72.328175    36.085538          120    18723.178    17406.622    -37150.85    1622.1002   -1423.0847     1739.537    72.328175    62.638037    36.085538      -340.35   -312076.18 
   99640    189.23422    163500.06    72.330344    72.330345     36.08662          120    18449.701    17294.471   -37157.785    1336.8387   -1080.5011    2143.9881    72.330344    62.639916     36.08662   -471.20446   -312074.98 
   99650    188.57257    163514.37    72.332454    72.332454    36.087673          120    18298.318    16930.724   -38135.248    1400.3082   -717.85896    1962.2228    72.332454    62.641743    36.087673   -968.73551   -312073.06 
   99660    188.70813     163527.9     72.33445    72.334451    36.088669          120    18086.539    17051.985   -38579.531    1344.4676   -908.03987    1337.9395     72.33445    62.643472    36.088669   -1147.0024   -312072.72 
   99670    187.59539     163540.5    72.336307    72.336308    36.089596          120    17376.035    17035.849       -38338    1391.2132   -1833.5526    1452.9374    72.336307    62.645081    36.089596   -1308.7057   -312070.23 
   99680    189.93529    163552.01    72.338005    72.338006    36.090443          120    17019.344    16744.767   -38574.537    1955.9955   -1696.2959    1739.2046    72.338005    62.646551    36.090443   -1603.4753    -312074.1 
   99690    189.04441    163562.24    72.339512    72.339513    36.091194          120    16949.183    16862.841   -38103.268     1425.286   -1169.1044    1783.5854    72.339512    62.647856    36.091194   -1430.4146   -312071.83 
   99700    189.68205    163571.26    72.340843    72.340843    36.091858          120    17221.949    17253.147   -38287.467    886.75572   -1263.8091    1936.9171    72.340843    62.649008    36.091858   -1270.7904   -312072.48 
   99710    189.58607    163579.23    72.342018    72.342018    36.092445          120    17160.668    17197.514   -37760.792    1128.3203   -1216.8349    1811.5761    72.342018    62.650026    36.092445   -1134.2035   -312071.58 
   99720    189.31531    163586.25    72.343052    72.343052     36.09296          120    17033.548    17263.568     -37600.1    1481.1595   -1620.7271    1681.7045    72.343052    62.650921     36.09296    -1100.995   -312070.69 
   99730    190.33138    163592.27     72.34394     72.34394    36.093403          120    16669.735    16438.563    -38308.73    1288.2475   -1324.9955    1726.9094     72.34394     62.65169    36.093403    -1733.477   -312072.43 
   99740    188.69936    163596.92    72.344624    72.344625    36.093745          120    16481.059    16000.167    -38240.61    1620.6838   -907.35921    1146.0372    72.344624    62.652283    36.093745   -1919.7943   -312068.24 
   99750    190.09488    163599.99    72.345077    72.345077    36.093971          120    17064.396    16216.346   -38813.766    1607.5637   -792.01734    1337.1685    72.345077    62.652675    36.093971   -1844.3415   -312070.13 
   99760    190.08638    163601.57    72.345311    72.345311    36.094087          120    17357.075     16507.42   -38291.949    1405.3815   -1166.3837    1670.5175    72.345311    62.652877    36.094087   -1475.8178   -312069.72 
   99770    189.54717    163601.91     72.34536     72.34536    36.094112          120    17354.906    16462.145   -38588.868    1701.1692   -1142.4421      1594.58     72.34536     62.65292    36.094112   -1590.6057   -312068.07 
   99780    190.22518    163600.95    72.345219     72.34522    36.094042          120    17521.495    16105.802   -38306.677    1609.0131   -1242.4889    2177.6167    72.345219    62.652799    36.094042   -1559.7932   -312068.91 
   99790    190.63191    163598.69    72.344886    72.344886    36.093876          120    17469.239    15601.463    -38644.25    1238.8684   -1370.3635    2282.1222    72.344886     62.65251    36.093876   -1857.8492   -312069.71 
   99800    190.15789    163594.93    72.344332    72.344332    36.093599          120    17376.927    15953.116   -38751.827    1223.9515   -1241.4971    1743.4609    72.344332     62.65203    36.093599   -1807.2614    -312068.4 
   99810    191.77894    163589.69    72.343558    72.343559    36.093213          120     17302.92    16478.672   -38892.915    1399.3017   -1648.7219    1431.2344    72.343558     62.65136    36.093213    -1703.774   -312071.51 
   99820    191.38457    163583.06    72.342582    72.342583    36.092726          120    17501.992    17299.118   -38815.889    1613.5995   -1837.2348    1466.6541    72.342582    62.650515    36.092726   -1338.2595   -312070.39 
   99830    188.26474    163575.35    72.341445    72.341445    36.092159          120    17355.166    18068.377   -38189.827    1487.1819   -1951.5162    1579.0486    72.341445    62.649529    36.092159   -922.09458   -312064.25 
   99840    190.54943    163566.84    72.340191    72.340191    36.091533          120     17597.17    17850.413   -38135.234    1526.9447   -1536.9036    1526.3776    72.340191    62.648444    36.091533   -895.88357   -312068.77 
   99850    189.66895    163557.63    72.338833    72.338834    36.090856          120    18046.744     18135.53   -37850.592    1212.4203   -1538.7019    1707.6787    72.338833    62.647268    36.090856   -556.10572   -312067.34 
   99860    190.78134    163547.92    72.337401    72.337402    36.090141          120    18247.323    17961.105   -38156.459    910.70589     -1640.97    1972.5513    72.337401    62.646028    36.090141   -649.34364   -312069.36 
   99870    191.43325    163537.68    72.335892    72.335893    36.089388          120    18300.514    17508.858   -37938.141    965.31352   -1016.6188    1781.4231    72.335892    62.644721    36.089388   -709.58965   -312070.77 
   99880    190.58102    163526.86    72.334296    72.334297    36.088592          120    17974.044    17387.216    -37802.41    1042.6667   -1592.4613    1857.7052    72.334296    62.643339    36.088592   -813.71642    -312069.3 
   99890    190.57039    163515.37    72.332603    72.332603    36.087747          120    17719.386    17250.973   -37462.117    1033.4551    -922.4167    2007.0737    72.332603    62.641872    36.087747   -830.58603   -312069.02 
   99900    191.20659    163503.22    72.330811    72.330811    36.086853          120    17848.909    17509.154   -37860.349    1141.0112   -1359.2744    2315.2449    72.330811     62.64032    36.086853   -834.09511   -312070.32 
   99910    190.42193    163490.43    72.328924    72.328925    36.085912          120    17849.929    18116.323   -37346.197    1384.7343   -1480.3745    1630.1224    72.328924    62.638686    36.085912   -459.98162   -312068.47 
   99920    189.41965    163477.24    72.326979     72.32698    36.084942          120     18399.87    17866.975   -37472.301    1191.1063   -1545.0851    1779.5571    72.326979    62.637002    36.084942    -401.8187   -312066.92 
   99930    190.37336    163463.72    72.324985    72.324986    36.083947          120    18387.819    18340.372   -38025.345    906.76426   -1693.7758    1708.5208    72.324985    62.635275    36.083947   -432.38487   -312068.95 
   99940    191.28408    163449.84    72.322939    72.322939    36.082926          120    18545.939    17689.891   -37331.083    1341.4416   -1191.7247    2194.2258    72.322939    62.633503    36.082926   -365.08428   -312071.16 
   99950    189.55212    163435.66    72.320847    72.320847    36.081882          120    18382.509    17942.453   -37403.942    1452.7123   -1190.1292    2408.1385    72.320847    62.631691    36.081882   -359.65997   -312068.05 
   99960    190.74354    163421.21    72.318715    72.318715    36.080818          120    18556.112    18042.616   -37317.752     2030.311    -1474.653    1788.9435    72.318715    62.629845    36.080818   -239.67477   -312070.38 
   99970    191.55447    163406.59    72.316558    72.316559    36.079742          120    19326.858    17875.413   -37184.264    2013.3248   -1196.6683    2046.3616    72.316558    62.627977    36.079742    6.0025308   -312072.32 
   99980    191.42745       163392    72.314406    72.314407    36.078669          120    18663.815    18099.896   -35899.085     1290.061   -1017.9904    2024.4961    72.314406    62.626113    36.078669    288.20886   -312071.93 
   99990    188.71502    163377.63    72.312286    72.312287    36.077611          120    18452.417    17994.977   -35892.721    1465.3464   -1456.3143    1647.8523    72.312286    62.624277    36.077611    184.89094    -312067.2 
  100000    189.94782    163363.39    72.310185    72.310186    36.076563          120    18027.411    18462.617   -36998.882    1471.4634   -2086.6638    1630.4896    72.310185    62.622458    36.076563    -169.6182   -312070.35 
Loop time of 37142.8 on 1 procs for 100000 steps with 14848 atoms

Performance: 0.233 ns/day, 103.175 hours/ns, 2.692 timesteps/s
100.0% CPU use with 1 MPI tasks x no OpenMP threads

MPI task timing breakdown:
Section |  min time  |  avg time  |  max time  |%varavg| %total
---------------------------------------------------------------
Pair    | 31334      | 31334      | 31334      |   0.0 | 84.36
Bond    | 0.057985   | 0.057985   | 0.057985   |   0.0 |  0.00
Kspace  | 1473.9     | 1473.9     | 1473.9     |   0.0 |  3.97
Neigh   | 3431.5     | 3431.5     | 3431.5     |   0.0 |  9.24
Comm    | 47.834     | 47.834     | 47.834     |   0.0 |  0.13
Output  | 1.3578     | 1.3578     | 1.3578     |   0.0 |  0.00
Modify  | 837.23     | 837.23     | 837.23     |   0.0 |  2.25
Other   |            | 17.05      |            |       |  0.05

Nlocal:    14848 ave 14848 max 14848 min
Histogram: 1 0 0 0 0 0 0 0 0 0
Nghost:    46796 ave 46796 max 46796 min
Histogram: 1 0 0 0 0 0 0 0 0 0
Neighs:    1.00734e+07 ave 1.00734e+07 max 1.00734e+07 min
Histogram: 1 0 0 0 0 0 0 0 0 0

Total # of neighbors = 10073367
Ave neighs/atom = 678.433
Ave special neighs/atom = 0
Neighbor list builds = 10172
Dangerous builds = 0
 
All done!
Total wall time: 10:25:33
