LAMMPS (16 Mar 2018)
Reading data file ...
  triclinic box = (0 0 0) to (9.208 7.97436 18.376) with tilt (-4.604 0 0)
  1 by 1 by 1 MPI processor grid
  reading atoms ...
  116 atoms
Finding 1-2 1-3 1-4 neighbors ...
  special bond factors lj:   0          0          0         
  special bond factors coul: 0          0          0         
  0 = max # of 1-2 neighbors
  0 = max # of 1-3 neighbors
  0 = max # of 1-4 neighbors
  1 = max # of special neighbors
Replicating atoms ...
  triclinic box = (0 0 0) to (73.664 63.7949 36.752) with tilt (-36.832 0 0)
  1 by 1 by 1 MPI processor grid
  14848 atoms
Finding 1-2 1-3 1-4 neighbors ...
  special bond factors lj:   0          0          0         
  special bond factors coul: 0          0          0         
  0 = max # of 1-2 neighbors
  0 = max # of 1-3 neighbors
  0 = max # of 1-4 neighbors
  1 = max # of special neighbors
  Time spent = 0.012774 secs
PPPM initialization ...
WARNING: System is not charge neutral, net charge = -0.2048 (../kspace.cpp:302)
  using 12-bit tables for long-range coulomb (../kspace.cpp:321)
  G vector (1/distance) = 0.201681
  grid = 36 50 24
  stencil order = 5
  estimated absolute RMS force accuracy = 0.00105653
  estimated relative force accuracy = 7.33721e-05
  using double precision FFTs
  3d grid and FFT values/proc = 65395 43200
Neighbor list info ...
  update every 1 steps, delay 0 steps, check yes
  max neighbors/atom: 2000, page size: 100000
  master list distance cutoff = 15.3
  ghost atom cutoff = 15.3
  binsize = 7.65, bins = 15 9 5
  3 neighbor lists, perpetual/occasional/extra = 3 0 0
  (1) pair morse, perpetual
      attributes: half, newton on
      pair build: half/bin/newton/tri
      stencil: half/bin/3d/newton/tri
      bin: standard
  (2) pair buck, perpetual, copy from (1)
      attributes: half, newton on
      pair build: copy
      stencil: none
      bin: none
  (3) pair lj/cut/coul/long, perpetual, copy from (1)
      attributes: half, newton on
      pair build: copy
      stencil: none
      bin: none
Setting up Verlet run ...
  Unit style    : metal
  Current step  : 0
  Time step     : 0.001
Per MPI rank memory allocation (min/avg/max) = 145.7 | 145.7 | 145.7 Mbytes
Step Temp Volume Cella Cellb Cellc CellGamma Pxx Pyy Pzz Pxy Pxz Pyz Lx Ly Lz Press PotEng 
       0          180    172711.88       73.664    73.664001       36.752          120   -209373.43   -209399.39   -280383.89    15.472578   -4.5802549    6.1206522       73.664    63.794896       36.752   -233052.24   -309191.56 
      10    302.91001    172599.21    73.647979    73.647979    36.744007          120   -212306.76   -212393.49   -259658.35    96.191587   -14.455776   -142.07154    73.647979    63.781021    36.744007   -228119.53   -309469.52 
      20     559.2002    172268.36     73.60089    73.600891    36.720514          120   -211016.45   -210651.78   -200631.31    23.141705   -222.47354   -305.22786     73.60089    63.740241    36.720514   -207433.18    -310025.7 
      30    541.49235    171751.38    73.527191    73.527191    36.683744          120   -187701.58   -187205.59    -120269.6   -208.87181   -742.66194   -384.03291    73.527191    63.676416    36.683744   -165058.93   -310078.67 
      40    319.40379    171119.93    73.436972    73.436972    36.638732          120    -147020.2      -146987   -41012.173   -487.72324   -1117.7419   -435.15479    73.436972    63.598284    36.638732   -111673.12   -309723.61 
      50    398.42575    170470.08    73.343891    73.343892    36.592293          120   -104557.83   -104884.15   -5017.8222   -606.81076   -1190.3248   -597.37231    73.343891    63.517674    36.592293     -71486.6   -309918.67 
      60    713.73856    169876.05    73.258599      73.2586     36.54974          120   -74288.254   -74193.409    -38981.67   -581.31215   -2102.9681   -454.30091    73.258599    63.443809     36.54974   -62487.778   -310569.38 
      70    905.24601    169358.92    73.184187    73.184188    36.512615          120   -52628.861   -52228.109   -101178.11   -1390.2671   -2438.5414   -353.91532    73.184187    63.379366    36.512615   -68678.361   -311016.88 
      80    758.95417    168904.28    73.118641    73.118642    36.479913          120   -38514.311   -38922.646      -146124   -1723.3123   -2994.2193     151.5961    73.118641    63.322601    36.479913   -74520.319   -310819.23 
      90    482.14716    168489.26    73.058704    73.058705    36.450009          120   -31456.074   -32011.625   -161195.08   -1898.5187   -3539.8415    64.907916    73.058704    63.270694    36.450009   -74887.592   -310350.53 
     100    505.28925     168097.4    73.002022    73.002023     36.42173          120   -16777.445   -16738.054   -141424.68   -1711.0139   -3309.8248   -484.90757    73.002022    63.221607     36.42173   -58313.394   -310442.34 
     110    679.17582    167728.58    72.948592    72.948593    36.395073          120    2181.9166     2215.155   -98363.846   -1821.1832   -2699.1599   -567.33505    72.948592    63.175335    36.395073   -31322.258   -310833.35 
     120    671.58629    167393.25    72.899946    72.899947    36.370803          120    12799.663    12876.736   -46470.462   -1749.2125   -2268.3661   -1144.4095    72.899946    63.133206    36.370803   -6931.3546   -310883.02 
     130    563.43662    167100.69    72.857452    72.857453    36.349602          120    10878.841    11809.915    -5809.141   -1801.0278   -2246.4523   -1004.9032    72.857452    63.096405    36.349602    5626.5383   -310729.44 
     140    520.35289    166851.72    72.821249    72.821249     36.33154          120    5722.6631    5856.9776    6199.5653   -1385.3712   -2187.3103   -810.97844    72.821249    63.065052     36.33154     5926.402    -310690.3 
     150    579.48515    166638.14    72.790163    72.790164    36.316031          120   -1688.6951   -621.89286   -18417.986   -1822.2249   -1722.5715   -450.40235    72.790163    63.038131    36.316031   -6909.5248   -310849.25 
     160    637.17242    166443.48    72.761809    72.761809    36.301884          120   -12210.702    -10337.46   -56286.411   -1535.5967    -1832.231   -259.82219    72.761809    63.013576    36.301884   -26278.191   -311017.53 
     170    607.58158    166249.09    72.733472    72.733472    36.287746          120   -17186.734   -14930.009   -86414.539   -646.42291   -2393.9576   -583.38891    72.733472    62.989035    36.287746   -39510.427   -311023.84 
     180    525.90758    166043.63    72.703497    72.703497    36.272792          120   -13499.266   -11147.801   -102475.57   -322.43144   -2527.3781   -714.64645    72.703497    62.963076    36.272792   -42374.213   -310923.66 
     190    508.14515    165825.84    72.671696    72.671697    36.256926          120   -8055.3776   -5942.6052   -98609.295    292.98791   -2182.4278   -484.17316    72.671696    62.935536    36.256926   -37535.759   -310938.99 
     200    548.06272    165601.53    72.638914    72.638915     36.24057          120   -3573.3295   -1964.8826   -77996.737     -283.427   -2234.8731   -431.72839    72.638914    62.907146     36.24057   -27844.983   -311066.82 
     210    548.59956    165380.08    72.606521    72.606521    36.224409          120    804.89123    2665.9203   -53151.148   -906.02006   -2424.3876   -362.58619    72.606521    62.879092    36.224409   -16560.112   -311121.22 
     220    514.77559       165171    72.575911    72.575911    36.209137          120    4705.7459    5939.7216   -33701.668   -373.11494   -2067.2842   -1102.6566    72.575911    62.852583    36.209137      -7685.4   -311105.86 
     230    493.07363     164980.3     72.54797     72.54797    36.195197          120    5711.5234    5934.1259   -27778.252   -136.00491   -1478.1026   -1810.4674     72.54797    62.828385    36.195197   -5377.5341   -311109.58 
     240    498.78233    164807.89    72.522689     72.52269    36.182584          120    3926.0264    3589.5217   -34421.407   -157.77175   -1873.8996   -2079.4131    72.522689    62.806492    36.182584   -8968.6196   -311164.85 
     250    513.38679    164648.71    72.499332    72.499332    36.170931          120    1797.2457    858.95221   -49490.524   -16.935215   -1795.9284    -2130.335    72.499332    62.786264    36.170931   -15611.442   -311240.12 
     260    500.96132    164495.84    72.476887    72.476887    36.159733          120    1500.2553   -410.35604   -64791.823   -24.974607   -1677.2862   -2165.7562    72.476887    62.766826    36.159733   -21233.975   -311264.07 
     270    470.82206    164343.94    72.454572    72.454573    36.148599          120    2285.9858    275.75716   -72826.439   -760.56427   -1498.8332   -1314.7516    72.454572    62.747501    36.148599   -23421.565   -311252.86 
     280    455.32141    164191.09    72.432102    72.432102    36.137389          120    3523.4349    2344.2092   -70277.374   -635.68212   -1165.9359   -611.27678    72.432102    62.728041    36.137389    -21469.91   -311265.52 
     290    459.68004    164038.95    72.409723    72.409724    36.126224          120    6628.8177    6415.8607   -59593.243   -566.31794   -1635.4063   -139.75016    72.409723     62.70866    36.126224   -15516.188   -311316.31 
     300    458.82788     163892.1     72.38811    72.388111    36.115441          120    10270.913    10331.937   -44884.313   -129.87655   -1954.1425    90.298639     72.38811    62.689943    36.115441   -8093.8209   -311356.55 
     310    447.37504    163755.73    72.368026    72.368026     36.10542          120    12357.185    12176.276   -30890.075    342.85426   -2095.9432   -10.148699    72.368026    62.672549     36.10542   -2118.8717    -311375.4 
     320     432.2514    163633.11    72.349959     72.34996    36.096407          120    11661.948    12202.242   -24518.003    70.289214   -2337.0991   -640.28842    72.349959    62.656903    36.096407   -217.93762   -311384.87 
     330    428.80888    163524.04    72.333881    72.333881    36.088385          120    9683.9811    11110.032   -26710.765   -224.24203   -2360.8851   -911.71229    72.333881    62.642979    36.088385   -1972.2504   -311415.29 
     340    425.90686    163425.43    72.319338    72.319338    36.081129          120     9108.347     10207.14   -36293.204   -230.15068   -1739.3675   -827.24123    72.319338    62.630384    36.081129   -5659.2391   -311446.47 
     350    417.98123    163332.95    72.305694    72.305695    36.074322          120     8981.171    10047.345   -47559.939   -392.09556   -1205.5929   -664.01302    72.305694    62.618568    36.074322   -9510.4743   -311468.14 
     360    402.92351    163242.77    72.292385    72.292385    36.067682          120    9412.0397    11206.564   -53787.583    -555.7592   -982.62167   -1604.0614    72.292385    62.607042    36.067682   -11056.327   -311474.04 
     370    390.53379    163153.26    72.279168    72.279168    36.061088          120    10485.477    13348.049   -53479.489   -604.65121   -1978.2434   -2243.5146    72.279168    62.595596    36.061088    -9881.988   -311484.36 
     380    386.22448    163065.11    72.266149    72.266149    36.054592          120    12888.807    15491.937   -47966.123   -597.86908   -2059.6644   -1849.6741    72.266149    62.584321    36.054592   -6528.4596   -311508.06 
     390    384.17979     162980.7    72.253677    72.253678     36.04837          120    14853.178    17028.994    -38612.58   -619.37547   -2802.0115    -1853.615    72.253677    62.573521     36.04837   -2243.4693   -311536.26 
     400    372.29444    162902.93    72.242182    72.242183    36.042635          120    16045.145    17555.843   -28920.308    129.91602   -3282.5117   -1305.0852    72.242182    62.563566    36.042635    1560.2268   -311543.85 
     410    363.69784       162834    72.231991    72.231992    36.037551          120     17060.65    18212.398    -24982.54    127.69611   -2663.5457   -1499.5654    72.231991     62.55474    36.037551    3430.1692   -311556.42 
     420    363.26792    162774.39    72.223177    72.223177    36.033153          120    16493.759    18253.601   -26529.346   -125.85717   -2637.2179   -861.50403    72.223177    62.547106    36.033153     2739.338   -311585.19 
     430     357.2543    162722.57    72.215511    72.215512    36.029329          120     15317.32     17270.19   -31846.134    108.43082   -2211.3701   -388.67054    72.215511    62.540468    36.029329    247.12534   -311603.17 
     440    348.29996    162675.74    72.208584    72.208584    36.025872          120    15121.604    16072.543   -38462.732    155.30325   -2429.2791   -312.22016    72.208584    62.534468    36.025872   -2422.8619   -311613.84 
     450    339.22249    162631.31    72.202008    72.202009    36.022592          120    16360.106     15640.98   -42161.642   -41.419522   -2299.4445   -109.74336    72.202008    62.528774    36.022592    -3386.852   -311623.22 
     460    334.94074     162588.3    72.195643    72.195643    36.019416          120    18990.659    17883.302    -41751.63    334.86655   -2512.2359   -177.92068    72.195643    62.523261    36.019416   -1625.8899   -311640.18 
     470    330.35191    162547.77    72.189644    72.189644    36.016423          120    20865.281    19099.309   -38229.665     724.9786   -3102.7592    51.465302    72.189644    62.518066    36.016423    578.30829   -311656.62 
     480    325.88155    162511.26    72.184239     72.18424    36.013727          120     20949.52    20226.036   -32190.826    954.01336   -2585.8313    -59.72076    72.184239    62.513385    36.013727    2994.9101   -311673.11 
     490    319.19629    162480.29    72.179653    72.179653    36.011438          120    20921.426    21714.349   -27945.645    802.87269   -2468.8998   -59.417833    72.179653    62.509414    36.011438    4896.7097   -311683.86 
     500    312.95576    162455.88    72.176038    72.176038    36.009635          120    20692.355    22786.858   -26057.495    401.97931   -2467.0001    911.76857    72.176038    62.506283    36.009635    5807.2394   -311694.47 
     510    309.62401     162438.1    72.173405    72.173405    36.008321          120    19738.732    22045.105   -27683.815    846.63813   -2440.9781    856.46503    72.173405    62.504003    36.008321    4700.0074   -311710.64 
     520    303.22573    162425.58     72.17155    72.171551    36.007396          120    18795.174    20967.713   -31055.294    863.77886   -2506.0538     819.2817     72.17155    62.502397    36.007396    2902.5312   -311720.65 
     530    298.21774    162416.44    72.170197    72.170198    36.006721          120    18185.563    20489.336    -35092.11    351.32757   -2434.5221    1432.5046    72.170197    62.501225    36.006721     1194.263   -311731.81 
     540    294.20143    162409.01    72.169096    72.169097    36.006172          120    17218.873    20592.997   -38055.822    148.14586   -2507.3082    1113.8333    72.169096    62.500271    36.006172   -81.317417   -311744.84 
     550    286.98204    162402.19    72.168086    72.168086    36.005667          120    17141.893    21383.459   -38167.588    219.86024   -2096.8548    746.28255    72.168086    62.499396    36.005667    119.25478   -311751.24 
     560    283.61339    162396.07    72.167179     72.16718    36.005215          120    18376.892    22279.286   -35949.787   -169.96708   -2631.2677    736.61585    72.167179    62.498611    36.005215    1568.7972   -311764.17 
     570    279.39468    162391.73    72.166537    72.166538    36.004895          120      19776.1    22174.847   -31600.806    294.06906    -2540.225    390.25442    72.166537    62.498055    36.004895    3450.0466   -311774.71 
     580    275.74119    162390.52    72.166357    72.166358    36.004805          120    20508.484    22228.723   -28697.706    633.03879   -2287.5974    371.67302    72.166357    62.497899    36.004805    4679.8333   -311785.51 
     590    271.33771    162393.23    72.166758    72.166759    36.005005          120    20121.831    22546.673   -27018.524    431.51184   -2401.2966    246.56578    72.166758    62.498247    36.005005    5216.6597   -311794.76 
     600    267.22324    162399.97    72.167758    72.167758    36.005504          120    20266.088    21636.083   -28300.289     5.056112   -2126.2899    114.89207    72.167758    62.499112    36.005504    4533.9605    -311804.7 
     610     266.4154    162409.93    72.169233    72.169233     36.00624          120    19619.231    20669.389   -31017.704   -523.67264   -2469.8757   -395.98159    72.169233     62.50039     36.00624    3090.3051   -311820.37 
     620    260.03172     162421.8     72.17099    72.170991    36.007117          120    19451.084    20127.798   -33243.918   -826.04359   -2657.3395   -760.72271     72.17099    62.501912    36.007117    2111.6548   -311824.52 
     630     257.9627    162434.58    72.172884    72.172885    36.008061          120     19233.41    19650.705   -35316.076   -705.67271   -2465.3823   -870.51708    72.172884    62.503552    36.008061    1189.3467   -311836.74 
     640    253.21458    162447.57    72.174808    72.174809    36.009021          120      19521.5    19406.493   -34914.119   -31.695438   -2419.1112    -243.0962    72.174808    62.505218    36.009021    1337.9581   -311842.78 
     650    249.41235    162460.83    72.176771    72.176771        36.01          120    20033.456    19760.709   -33509.551    390.04104   -2927.4392    36.166421    72.176771    62.506918        36.01    2094.8711   -311850.37 
     660    246.04111    162474.97    72.178865    72.178866    36.011046          120     20182.08    20864.288   -31400.592    237.53314   -2768.8226    237.86117    72.178865    62.508732    36.011046    3215.2589   -311858.69 
     670     242.4673    162490.81    72.181211    72.181212    36.012216          120    20006.637    21278.691    -29532.71   -33.367589   -2086.0592   -8.0600034    72.181211    62.510763    36.012216    3917.5392   -311866.14 
     680    237.07755     162508.8    72.183875    72.183875    36.013545          120    19102.746    21411.367    -29349.17   -362.79752   -2660.1154    -67.98347    72.183875     62.51307    36.013545    3721.6479   -311869.75 
     690    235.69801    162528.67    72.186816    72.186817    36.015012          120    18039.914    20928.733   -30970.829   -790.02364   -2427.8243   -189.07792    72.186816    62.515617    36.015012    2665.9392   -311880.47 
     700     233.1523    162549.46    72.189893    72.189894    36.016548          120     17448.26    19753.218   -33328.194   -553.28768   -2706.5978   -294.16446    72.189893    62.518282    36.016548    1291.0944   -311888.35 
     710     230.0485    162570.06    72.192943    72.192944    36.018069          120    16940.637    19334.553   -34512.352   -272.40774    -2370.887   -277.76033    72.192943    62.520923    36.018069    587.61288    -311895.3 
     720    226.19569    162589.89    72.195879    72.195879    36.019534          120     17077.79    19653.469   -35680.059    3.7470264   -2062.7422   -767.60607    72.195879    62.523466    36.019534     350.3998   -311899.57 
     730    221.95882    162608.83    72.198682    72.198683    36.020932          120    17217.839    19996.749   -35261.281    703.35265   -2107.1296   -1040.2304    72.198682    62.525894    36.020932    651.10244   -311903.06 
     740    222.29789    162627.14    72.201392    72.201393    36.022285          120    17867.747    19669.371   -34512.557    287.89724     -2522.63   -1087.7335    72.201392    62.528241    36.022285     1008.187    -311915.1 
     750    218.38862    162645.19    72.204063    72.204064    36.023617          120    18093.301    19516.013   -33249.351    225.23788   -2909.4382   -879.36107    72.204063    62.530554    36.023617     1453.321   -311918.87 
     760    216.55705    162663.33    72.206748    72.206748    36.024956          120    18161.439    19188.368   -32681.769    151.21687   -1874.4222   -451.46927    72.206748    62.532878    36.024956    1556.0127   -311925.86 
     770    214.30289    162681.65    72.209458    72.209458    36.026309          120     17704.39    18910.405   -32675.062    370.68142   -1913.0786   -478.80404    72.209458    62.535225    36.026309    1313.2444   -311932.09 
     780    213.66452    162699.93    72.212162    72.212163    36.027658          120    16993.416    18039.478   -33460.166    530.29417   -2041.0413   -486.28501    72.212162    62.537568    36.027658    524.24283   -311941.05 
     790    210.08613    162717.52    72.214765    72.214766    36.028957          120    16654.667    17331.296   -35911.876    430.67244   -2054.4178   -518.10391    72.214765    62.539822    36.028957   -641.97089   -311944.55 
     800    204.12576    162733.62    72.217147    72.217147    36.030145          120    16600.473    17605.083   -37073.258    661.51168   -1862.8009   -824.40391    72.217147    62.541884    36.030145   -955.90059   -311941.95 
     810    204.02996    162747.99    72.219272    72.219273    36.031205          120     17120.57     17228.18   -37613.576    574.21566   -1727.6696   -673.89862    72.219272    62.543725    36.031205   -1088.2753    -311950.4 
     820    202.01926    162760.67    72.221148    72.221148    36.032141          120    17186.181    17261.842   -36336.612     527.3608   -1511.4063   -400.12211    72.221148    62.545349    36.032141   -629.52978   -311955.39 
     830     201.1933    162772.12    72.222841    72.222842    36.032986          120    17205.483    17478.057   -34616.088    283.62433   -2018.2216   -474.76634    72.222841    62.546816    36.032986     22.48382   -311962.68 
     840    198.87231    162782.89    72.224434    72.224435    36.033781          120    16973.076    17521.263   -34037.811    168.09075   -2077.2977   -752.13313    72.224434    62.548196    36.033781    152.17625   -311965.98 
     850    196.52004    162793.15    72.225952    72.225952    36.034538          120    16353.982    17160.227    -34066.59    320.20151   -1338.9084   -366.28528    72.225952    62.549509    36.034538   -184.12692   -311969.55 
     860    193.52981    162802.67    72.227359     72.22736     36.03524          120    15688.533    16598.779   -34253.432    701.88001   -808.54707   -392.91059    72.227359    62.550729     36.03524   -655.37328   -311971.45 
     870    192.15997    162811.16    72.228615    72.228616    36.035866          120    15752.236    17548.476   -34553.007    505.31986   -942.09436   -170.74201    72.228615    62.551816    36.035866   -417.43191   -311976.19 
     880    191.60008    162818.78    72.229742    72.229743    36.036429          120    15609.149    18001.716   -35566.718    620.43939   -1380.5228    273.22964    72.229742    62.552792    36.036429   -651.95106   -311981.89 
     890      191.268    162825.43    72.230725    72.230725    36.036919          120    15108.599    17419.905   -35994.622    698.69211   -1865.9341   -70.954858    72.230725    62.553643    36.036919   -1155.3727   -311988.29 
     900    187.93493    162830.74     72.23151    72.231511    36.037311          120    15179.674    16848.822   -36762.043    632.41652   -2339.8349   -373.19089     72.23151    62.554324    36.037311    -1577.849   -311988.59 
     910    185.64433     162834.5    72.232066    72.232066    36.037588          120    16147.892    16608.866   -36591.935    1299.5439   -2631.0757   -716.35033    72.232066    62.554805    36.037588   -1278.3926   -311990.85 
     920    186.39477       162837    72.232436    72.232436    36.037773          120    16924.099    17266.262   -36123.999    1585.0452   -2487.1836   -874.85291    72.232436    62.555125    36.037773   -644.54584   -311998.23 
     930    185.86489    162838.79    72.232701    72.232701    36.037905          120     16580.88    17737.133   -35292.384      1303.34   -2510.9907   -937.91945    72.232701    62.555355    36.037905   -324.79043   -312003.26 
     940    182.80097    162840.25    72.232916    72.232916    36.038012          120    16655.846    17730.743   -34169.911    1130.4957   -2498.6324    -900.7924    72.232916     62.55554    36.038012    72.226172    -312003.1 
     950     181.9256    162841.61    72.233117    72.233118    36.038113          120    16511.224    17915.401   -35143.381    992.61384   -2301.4747   -728.11742    72.233117    62.555715    36.038113   -238.91856   -312006.07 
     960    181.00533    162842.74    72.233284    72.233284    36.038196          120    16597.189    17673.316   -35272.891    508.50783   -1880.7707   -151.57561    72.233284    62.555859    36.038196   -334.12866   -312009.42 
     970    180.01492    162843.47    72.233392    72.233393     36.03825          120    16348.477    16579.383   -35727.144    551.19862     -1891.72   -34.105639    72.233392    62.555953     36.03825   -933.09482    -312012.3 
     980    177.96094    162843.43    72.233386    72.233387    36.038247          120    16880.095    16502.474   -36199.079    1032.9077   -2302.4296    764.07166    72.233386    62.555948    36.038247   -938.83648   -312012.85 
     990    177.09153    162842.63    72.233268    72.233268    36.038188          120     17171.17    16771.139   -35852.231    1270.7024   -2253.5956    484.45794    72.233268    62.555845    36.038188   -636.64053   -312015.68 
    1000    176.03235    162841.32    72.233074    72.233074    36.038091          120    16671.143    16772.285   -35086.735    1456.3526   -2130.0528   -290.75829    72.233074    62.555677    36.038091   -547.76881   -312017.53 
Loop time of 295.919 on 1 procs for 1000 steps with 14848 atoms

Performance: 0.292 ns/day, 82.200 hours/ns, 3.379 timesteps/s
100.0% CPU use with 1 MPI tasks x no OpenMP threads

MPI task timing breakdown:
Section |  min time  |  avg time  |  max time  |%varavg| %total
---------------------------------------------------------------
Pair    | 236.74     | 236.74     | 236.74     |   0.0 | 80.00
Bond    | 0.00018167 | 0.00018167 | 0.00018167 |   0.0 |  0.00
Kspace  | 10.811     | 10.811     | 10.811     |   0.0 |  3.65
Neigh   | 41.763     | 41.763     | 41.763     |   0.0 | 14.11
Comm    | 0.3762     | 0.3762     | 0.3762     |   0.0 |  0.13
Output  | 0.010475   | 0.010475   | 0.010475   |   0.0 |  0.00
Modify  | 6.1269     | 6.1269     | 6.1269     |   0.0 |  2.07
Other   |            | 0.09488    |            |       |  0.03

Nlocal:    14848 ave 14848 max 14848 min
Histogram: 1 0 0 0 0 0 0 0 0 0
Nghost:    46867 ave 46867 max 46867 min
Histogram: 1 0 0 0 0 0 0 0 0 0
Neighs:    1.01058e+07 ave 1.01058e+07 max 1.01058e+07 min
Histogram: 1 0 0 0 0 0 0 0 0 0

Total # of neighbors = 10105809
Ave neighs/atom = 680.618
Ave special neighs/atom = 0
Neighbor list builds = 152
Dangerous builds = 0
PPPM initialization ...
  using 12-bit tables for long-range coulomb (../kspace.cpp:321)
  G vector (1/distance) = 0.202643
  grid = 36 50 24
  stencil order = 5
  estimated absolute RMS force accuracy = 0.000995263
  estimated relative force accuracy = 6.91172e-05
  using double precision FFTs
  3d grid and FFT values/proc = 65395 43200
Setting up Verlet run ...
  Unit style    : metal
  Current step  : 0
  Time step     : 0.001
Per MPI rank memory allocation (min/avg/max) = 152.6 | 152.6 | 152.6 Mbytes
Step Temp Volume Cella Cellb Cellc CellGamma Pxx Pyy Pzz Pxy Pxz Pyz Lx Ly Lz Press PotEng 
       0    176.03235    162841.32    72.233074    72.233074    36.038091          120    16683.978    16785.498   -35078.854    1456.7388   -2129.6189   -290.98768    72.233074    62.555677    36.038091   -536.45956   -312017.34 
      10    174.78894    162839.62    72.232823    72.232824    36.037966          120    16493.596    16847.492   -34661.496     1199.366   -2546.1905   -385.77638    72.232823     62.55546    36.037966   -440.13583   -312018.08 
      20    175.86028    162837.63    72.232529     72.23253    36.037819          120    16017.727    17435.158   -34923.001    649.03338   -2635.8005   -304.69427    72.232529    62.555206    36.037819   -490.03868      -312024 
      30    175.14069    162835.33    72.232189    72.232189    36.037649          120     15728.56    17388.855   -34844.771    687.60275   -2574.9981   -167.35086    72.232189    62.554911    36.037649   -575.78523   -312025.33 
      40    173.66014    162832.65    72.231793    72.231793    36.037452          120    15907.247    16605.094   -34696.906    1121.9813   -2496.2129   -367.11498    72.231793    62.554568    36.037452   -728.18845   -312025.09 
      50    173.06914    162829.51    72.231327    72.231328     36.03722          120    16096.811    16827.189   -35070.826    1051.7096   -2610.4414   -348.04834    72.231327    62.554165     36.03722   -715.60845    -312026.6 
      60    173.18348    162825.91    72.230795    72.230796    36.036954          120    16544.304    16931.617   -35563.036    1029.5352   -2282.2684   -77.155569    72.230795    62.553704    36.036954   -695.70512    -312028.9 
      70    171.52962    162821.89    72.230201    72.230201    36.036657          120    16617.802    17271.956   -36205.388    1153.0084   -2019.3604   0.45230244    72.230201    62.553189    36.036657   -771.87639   -312028.32 
      80    171.87014    162817.42    72.229541    72.229541    36.036328          120     16431.25    17416.376    -35602.04    922.51961   -1952.1484    55.681288    72.229541    62.552618    36.036328   -584.80488   -312030.73 
      90    170.45016    162812.71    72.228843    72.228844     36.03598          120     16828.97    17410.476   -34894.562    656.62025   -1819.1594    99.665999    72.228843    62.552014     36.03598   -218.37181   -312029.03 
     100    171.73723    162808.03    72.228151    72.228152    36.035635          120    17253.326    18006.838   -34855.654    733.92998   -2388.3108    -475.6494    72.228151    62.551415    36.035635    134.83644   -312032.25 
     110    171.04645    162803.68    72.227509    72.227509    36.035314          120    17077.974    18810.903   -34862.424    951.05456   -2188.6776   -1312.5529    72.227509    62.550858    36.035314    342.15123   -312031.77 
     120    170.69844     162799.8    72.226934    72.226935    36.035028          120    16778.214    18773.653   -34746.219    1036.1965   -2106.1688   -1222.5164    72.226934    62.550361    36.035028    268.54953   -312030.96 
     130    170.74594    162796.39     72.22643     72.22643    36.034776          120     17266.58     19228.57   -33931.831    1107.1646    -2414.498   -1141.4124     72.22643    62.549924    36.034776    854.43969   -312031.41 
     140    172.28727    162793.79    72.226046    72.226046    36.034584          120    17281.288    19569.795   -34533.821    1171.6474   -2584.9168    -890.2321    72.226046    62.549591    36.034584    772.42069   -312034.43 
     150    172.04963    162791.97    72.225776    72.225777     36.03445          120    17377.383     19257.28   -34667.822    919.14294   -2272.6632   -369.73381    72.225776    62.549358     36.03445    655.61369   -312033.32 
     160    173.18903    162790.78    72.225601    72.225601    36.034362          120    17548.361    19280.707   -34964.395    832.98738   -2503.2349    124.60612    72.225601    62.549206    36.034362    621.55763   -312033.95 
     170    170.59268    162790.22    72.225518    72.225519    36.034321          120     18457.37    19301.152   -34607.472    791.99811   -2364.9771   -33.957348    72.225518    62.549134    36.034321    1050.3498   -312027.48 
     180    170.90523    162790.54    72.225565    72.225565    36.034345          120    18494.962    19478.904   -34772.649    844.55361   -2051.5783   -259.16035    72.225565    62.549175    36.034345    1067.0723   -312027.05 
     190    172.96765    162791.68    72.225734    72.225734    36.034429          120    17952.254    18781.946   -35160.545    856.99124   -1749.8492   -486.10969    72.225734    62.549321    36.034429    524.55158   -312029.34 
     200    172.88125    162793.24    72.225965    72.225965    36.034544          120    17475.723    18026.223   -34372.743    1153.8292   -1323.9957   -1020.0494    72.225965    62.549521    36.034544    376.40114   -312027.54 
     210    173.14658    162795.06    72.226233    72.226234    36.034678          120    17582.763    17806.601   -34245.866    1098.0075   -1349.0183   -1252.2562    72.226233    62.549753    36.034678    381.16626   -312025.78 
     220    174.99487    162797.15    72.226543    72.226544    36.034833          120     18138.37    18165.997   -33779.628    710.25698   -1554.7985   -1699.6651    72.226543    62.550022    36.034833    841.57963   -312026.83 
     230    176.35861    162799.83    72.226938    72.226939     36.03503          120    18225.353     17915.44   -33765.534    885.13354   -1786.0602   -1731.2137    72.226938    62.550364     36.03503    791.75277   -312026.78 
     240    176.90135    162802.99    72.227407    72.227407    36.035264          120    17859.001    17029.285   -34497.707    721.87122   -2060.3959    -1615.629    72.227407     62.55077    36.035264    130.19313   -312024.87 
     250     177.8403    162806.19    72.227879     72.22788    36.035499          120    17747.492    17193.411   -34587.537    951.86997   -1955.4225   -1481.0783    72.227879    62.551179    36.035499    117.78862   -312023.99 
     260    177.86658    162809.36    72.228348    72.228348    36.035733          120    17792.914    17499.325   -34166.342    1319.3546   -1867.2682   -737.63742    72.228348    62.551585    36.035733    375.29869   -312020.91 
     270    178.72949    162812.67    72.228838    72.228839    36.035978          120    17402.768    18167.121   -34514.868    1155.9145   -2065.5073   -687.24119    72.228838    62.552009    36.035978    351.67363   -312019.65 
     280    180.71913    162816.15    72.229352    72.229353    36.036234          120    17399.124    18523.823    -34561.45    723.43124   -2334.1019   -8.7136497    72.229352    62.552455    36.036234    453.83253   -312020.92 
     290    180.46107    162819.89    72.229905    72.229906     36.03651          120    17773.698    18691.485   -34145.226    630.00987   -1733.1511    339.74639    72.229905    62.552933     36.03651    773.31877   -312017.34 
     300    181.89294    162824.06    72.230523    72.230523    36.036818          120    17784.417    18072.805   -34217.629     686.2337   -1435.0075   -92.010465    72.230523    62.553468    36.036818    546.53084    -312016.9 
     310    183.12528    162828.53    72.231183    72.231184    36.037148          120     17699.87    17774.578   -34325.819    758.74853   -1386.2212   -377.56973    72.231183     62.55404    36.037148    382.87631   -312016.55 
     320    182.96801     162833.1    72.231859     72.23186    36.037485          120    16940.454    17974.166   -34746.188    1217.8841   -1455.9691   -652.42758    72.231859    62.554626    36.037485    56.143826   -312013.53 
     330    183.27065    162837.55    72.232517    72.232517    36.037813          120    16618.792     18387.22   -35240.106    1312.3728   -1708.8495   -418.94095    72.232517    62.555195    36.037813   -78.031089    -312011.3 
     340    184.47382    162841.75    72.233139    72.233139    36.038123          120    16926.126    18625.406   -35306.199    908.04057   -1721.9686   -479.91344    72.233139    62.555734    36.038123    81.777591   -312011.28 
     350    184.09445    162845.85    72.233743    72.233744    36.038425          120    17728.186    18209.313    -35374.01    1171.7482   -1615.1277   -269.01074    72.233743    62.556257    36.038425    187.82971    -312008.3 
     360    184.45206    162849.91    72.234345    72.234345    36.038725          120    17964.562    17820.814   -35163.826    1553.0677   -1348.0335   -25.643447    72.234345    62.556778    36.038725    207.18323    -312007.4 
     370    186.92323    162854.01     72.23495     72.23495    36.039027          120    18289.661    17970.844   -34936.914     1580.756   -1521.2618   -135.78413     72.23495    62.557302    36.039027    441.19688   -312010.27 
     380    186.59446     162858.3    72.235584    72.235585    36.039343          120    18163.061    18246.844   -34691.479    1575.8112   -1904.5259     -175.882    72.235584    62.557852    36.039343     572.8087    -312008.3 
     390    185.77111    162862.86     72.23626     72.23626     36.03968          120    17333.167    18729.002   -34491.672    931.53147   -1861.3829   -476.27864     72.23626    62.558437     36.03968    523.49899   -312005.66 
     400    186.88229    162867.71    72.236976    72.236977    36.040038          120    17648.756    18966.218   -34251.588     589.3775   -1399.0556   -467.62046    72.236976    62.559057    36.040038    787.79513    -312006.8 
     410    187.32042    162872.98    72.237755    72.237756    36.040427          120    17608.586    18586.372   -34660.241    1161.4124     -1361.68   -657.74319    72.237755    62.559732    36.040427    511.57233   -312006.93 
     420    186.45386    162878.46    72.238565    72.238566    36.040831          120    17000.712    18167.579   -35150.165    1624.1877   -1927.8299   -706.49635    72.238565    62.560433    36.040831    6.0420732   -312004.71 
     430    188.38817    162883.71    72.239341    72.239342    36.041218          120    16918.433    17167.184   -35675.184    1368.2969   -2301.4493   -823.08687    72.239341    62.561105    36.041218    -529.8558   -312008.17 
     440    187.64555    162888.34    72.240026    72.240027    36.041559          120     17053.28    17449.873   -36067.543    1183.0926   -2470.5737   -917.27634    72.240026    62.561698    36.041559   -521.46337   -312006.77 
     450    189.15056    162892.37    72.240621    72.240622    36.041856          120    16638.259    18694.592   -35830.188    886.65612   -1788.8952   -535.09298    72.240621    62.562214    36.041856   -165.77869    -312009.6 
     460    186.07052    162896.09    72.241172    72.241172    36.042131          120    16978.842    18764.059   -35138.732    574.16983   -1979.2522   -616.79207    72.241172     62.56269    36.042131    201.38942   -312005.12 
     470    187.19183    162899.82    72.241723    72.241724    36.042406          120    17525.966    18705.799   -34676.245    1027.0624   -2405.4983   -740.69146    72.241723    62.563168    36.042406    518.50693   -312008.84 
     480    187.71316    162903.84    72.242318    72.242318    36.042703          120    18347.789    18371.208   -34074.941    1317.0372   -1970.1099   -747.40132    72.242318    62.563683    36.042703    881.35214   -312011.41 
     490    186.97733    162908.43    72.242996    72.242997    36.043041          120    18491.684    18538.237   -34087.088    1271.5593   -1931.3665   -438.97771    72.242996    62.564271    36.043041    980.94454   -312011.72 
     500    186.99408    162913.67     72.24377     72.24377    36.043427          120    18284.825    18799.989   -34286.759    1245.9794   -1713.9961   -468.93221     72.24377    62.564941    36.043427    932.68513   -312013.29 
     510    185.43285    162919.49     72.24463    72.244631    36.043856          120    18108.811    19624.843   -34823.156    1259.0449   -1733.1642   -853.22515     72.24463    62.565686    36.043856    970.16634   -312012.34 
     520    185.47583    162925.88    72.245574    72.245575    36.044328          120     17703.89    19780.872   -35228.735    1091.5798   -1920.2405    -1002.442    72.245574    62.566503    36.044328    752.00941   -312014.63 
     530    184.23235    162932.63    72.246573    72.246573    36.044826          120    17591.366    18559.864   -35372.284    1069.6319   -2123.8237   -1131.4617    72.246573    62.567368    36.044826    259.64887   -312014.99 
     540     183.7305    162939.35    72.247567    72.247567    36.045322          120     17362.71    18154.291   -35478.279    1237.7705   -2224.9251   -1397.9538    72.247567    62.568229    36.045322     12.90721   -312016.75 
     550    181.52676    162945.82    72.248523    72.248523    36.045799          120    17416.754    17694.958   -35561.654    858.49697   -2238.5888   -1424.2649    72.248523    62.569057    36.045799    -149.9806   -312014.89 
     560    181.73739     162951.9    72.249422    72.249422    36.046247          120    17151.873    17342.714   -35566.656    672.81363   -2182.5088   -878.07699    72.249422    62.569835    36.046247   -357.35626   -312018.14 
     570      181.365    162957.46    72.250243    72.250244    36.046657          120    16923.308    17398.478   -35778.295    601.72025   -1703.0045   -766.70282    72.250243    62.570547    36.046657     -485.503   -312020.31 
     580    180.07862    162962.36    72.250967    72.250967    36.047018          120    16214.498    17475.265   -36514.214    763.69286   -1607.6626   -673.91307    72.250967    62.571173    36.047018   -941.48377   -312020.84 
     590    180.92553     162966.3    72.251548    72.251549    36.047308          120    16234.163    17006.932   -36544.864     1108.983   -1931.4187   -254.29454    72.251548    62.571677    36.047308   -1101.2567   -312025.02 
     600    180.13996     162969.2    72.251977    72.251978    36.047522          120    16368.616    17487.332    -36396.17    1402.3073   -1789.7449    -96.21258    72.251977    62.572049    36.047522   -846.74073   -312026.23 
     610    179.48607    162971.26    72.252282    72.252282    36.047674          120     16945.63    17198.768   -36255.082    1343.1978   -1659.4711    141.00137    72.252282    62.572312    36.047674   -703.56135   -312027.45 
     620    177.33163    162972.68    72.252492    72.252493    36.047779          120    17631.586     17540.68    -35680.01    1195.0257   -2260.2977   -42.634286    72.252492    62.572494    36.047779   -169.24815   -312026.23 
     630    178.56196    162973.86    72.252666    72.252666    36.047866          120    17157.922     17608.74   -35121.913    630.70557   -2322.3638   -296.78522    72.252666    62.572645    36.047866   -118.41695   -312030.82 
     640    177.70002    162974.89    72.252818    72.252819    36.047942          120    16741.274    17876.699   -35151.148    72.734445   -2610.8618   -173.52465    72.252818    62.572777    36.047942   -177.72504   -312031.05 
     650    176.55159    162975.69    72.252936    72.252937    36.048001          120    16487.187    17825.718   -36364.052     523.6853   -2382.8235   -33.179074    72.252936    62.572879    36.048001   -683.71577   -312031.49 
     660    173.95834    162975.89    72.252966    72.252967    36.048016          120    16174.829    17326.973   -36657.658    984.93498   -2280.6495     77.78909    72.252966    62.572905    36.048016    -1051.952   -312029.02 
     670    175.76274    162975.22    72.252867    72.252868    36.047966          120    16168.853    17408.612   -36649.831       1251.8   -2815.7308    295.11251    72.252867    62.572819    36.047966   -1024.1221   -312034.09 
     680    176.37234     162973.7    72.252642    72.252643    36.047854          120    16180.299    17613.369   -37070.032    1482.1774   -2457.4183    149.64364    72.252642    62.572624    36.047854   -1092.1213   -312036.88 
     690    174.55625    162971.32    72.252291    72.252292    36.047679          120     16426.29    17280.385   -36679.196    1227.1665   -1838.3529   -108.42432    72.252291    62.572321    36.047679    -990.8405   -312034.85 
     700    174.49895    162968.22    72.251833    72.251833     36.04745          120    16116.917    17289.289   -35178.346    878.83916   -1923.5149   -39.443746    72.251833    62.571923     36.04745   -590.71325   -312036.12 
     710    173.99731    162964.66    72.251307    72.251308    36.047188          120    15449.379    17533.779   -35580.597    828.73376   -2117.2588      254.416    72.251307    62.571468    36.047188   -865.81325   -312036.44 
     720    175.69157    162960.53    72.250697    72.250698    36.046883          120    15797.719    17216.735    -35594.62     955.0049   -1424.2581    235.28052    72.250697     62.57094    36.046883   -860.05512    -312040.5 
     730    174.96088    162955.82        72.25    72.250001    36.046536          120    15862.941     16906.71   -35258.653    1183.6517   -1457.2506    156.92217        72.25    62.570336    36.046536   -829.66739   -312039.37 
     740    173.95299    162950.57    72.249225    72.249226    36.046149          120    16453.563    17161.464   -35755.396     1715.631   -1838.0764    497.84914    72.249225    62.569665    36.046149   -713.45608   -312038.35 
     750    173.36819    162944.92    72.248389     72.24839    36.045732          120    16383.178    17478.184   -35663.697     2150.362   -2170.6797    158.25227    72.248389    62.568941    36.045732   -600.77852   -312037.59 
     760      173.866    162938.93    72.247504    72.247505     36.04529          120    16199.959    17645.996   -36063.915    1889.5529   -2555.9605    -212.6247    72.247504    62.568175     36.04529   -739.32005   -312038.27 
     770    174.41699    162932.57    72.246564    72.246564    36.044821          120    16404.928    17977.377   -36050.302    1615.3201   -2612.5089    -638.7504    72.246564     62.56736    36.044821   -555.99902   -312039.59 
     780    175.57872    162925.95    72.245586    72.245586    36.044333          120    16523.866    17672.819    -35597.72    1652.3853   -2484.8376   -702.79049    72.245586    62.566513    36.044333   -467.01159   -312041.89 
     790    172.83659    162919.17    72.244583    72.244584    36.043833          120    16160.908    17682.138   -35203.926     1072.533   -2594.0976   -445.82902    72.244583    62.565645    36.043833   -453.62657   -312035.81 
     800    172.33953    162912.24     72.24356     72.24356    36.043322          120    15863.723    17811.266   -35335.028    1556.4001   -2733.4653   -34.260346     72.24356    62.564759    36.043322   -553.34635   -312033.84 
     810    175.47367     162905.1    72.242503    72.242504    36.042795          120    15862.105    17831.887   -36102.928    1592.8649   -2644.6492    112.50358    72.242503    62.563844    36.042795   -802.97846   -312038.98 
     820    175.91081    162897.53    72.241385    72.241386    36.042238          120    15805.337    17474.452   -36180.808     1172.689   -2666.4697    290.65732    72.241385    62.562875    36.042238   -967.00626   -312039.14 
     830    178.29234    162889.43    72.240188    72.240188     36.04164          120    15174.237     17703.02   -35963.054    829.89746   -2235.8631    190.16346    72.240188    62.561838     36.04164    -1028.599   -312042.37 
     840    176.65086    162880.77    72.238907    72.238907    36.041001          120    15801.314    17831.234   -36010.747    533.13225   -2223.0982   -354.94149    72.238907    62.560729    36.041001   -792.73274   -312038.02 
     850    176.42834    162871.75    72.237574    72.237574    36.040336          120    16791.357     17798.89   -35273.269    11.146223   -2734.1906   -603.27014    72.237574    62.559575    36.040336   -227.67414   -312035.34 
     860    177.62637    162862.87    72.236261    72.236262    36.039681          120    17787.985    18038.432   -34425.897    518.74762   -3076.1304   -997.04155    72.236261    62.558438    36.039681    466.84029   -312035.57 
     870    177.68422    162854.72    72.235055    72.235055    36.039079          120     18922.79    18215.094   -33651.828    516.20637   -2605.5165   -981.45253    72.235055    62.557393    36.039079    1162.0187   -312033.98 
     880    177.42835    162847.75    72.234025    72.234025    36.038565          120    18827.795    18198.092   -34284.733    293.21626   -2728.6171    -915.3718    72.234025    62.556501    36.038565    913.71769   -312031.66 
     890    178.41054     162841.8    72.233146    72.233146    36.038127          120    18838.129     18069.69   -35142.263    529.56986   -2760.0944   -1034.9932    72.233146     62.55574    36.038127    588.51864   -312031.26 
     900    178.10831    162836.58    72.232373    72.232373    36.037741          120    18516.932    18058.771   -35442.971    754.86553   -2789.5653   -1116.7733    72.232373    62.555071    36.037741    377.57719   -312028.67 
     910    178.14986    162831.85    72.231674    72.231675    36.037393          120    18023.181    18690.697   -35893.685    967.76379   -3078.7541   -862.44598    72.231674    62.554466    36.037393    273.39761   -312026.76 
     920    180.45234    162827.55    72.231039    72.231039    36.037076          120    17482.765    19575.907   -35407.303    1367.6323   -2856.9127   -468.61346    72.231039    62.553915    36.037076    550.45656   -312028.73 
     930    181.84865    162823.86    72.230492    72.230493    36.036803          120    18142.446    19295.259   -35390.928    1497.0993   -2115.3947    99.963778    72.230492    62.553442    36.036803    682.25898   -312029.74 
     940    180.71418    162820.89    72.230053    72.230053    36.036584          120    18297.991     19139.35   -34808.268    1311.8555   -1723.3551    284.66112    72.230053    62.553061    36.036584    876.35773   -312024.69 
     950     180.9718    162818.75    72.229737    72.229738    36.036426          120    18294.487    19321.202   -34273.028    1144.8408    -1963.486    -27.56726    72.229737    62.552788    36.036426    1114.2204   -312023.44 
     960    181.83079    162817.64    72.229573    72.229574    36.036344          120    18903.136    19530.682   -34090.212    897.71785   -2157.0447   -619.62973    72.229573    62.552646    36.036344    1447.8686   -312023.14 
     970    184.00177    162817.75     72.22959     72.22959    36.036353          120    18334.979    20313.404   -34665.662    1469.8921   -2065.8754   -662.90626     72.22959     62.55266    36.036353    1327.5736   -312025.33 
     980    184.22822    162819.01    72.229775    72.229775    36.036445          120    18092.298    20541.844   -34623.796    1994.2107   -2314.6858   -382.40397    72.229775     62.55282    36.036445    1336.7819   -312024.41 
     990    182.58029    162821.31    72.230116    72.230116    36.036615          120     17742.62    19606.406   -34584.822    2047.3798   -2208.1793   -642.58383    72.230116    62.553116    36.036615    921.40145   -312020.05 
    1000    184.47543    162824.35    72.230565    72.230566    36.036839          120    17757.016    19110.405   -34320.362    1455.6637   -2467.0222    -989.0043    72.230565    62.553505    36.036839    849.01977   -312022.45 
    1010    184.02341    162828.04    72.231111    72.231111    36.037112          120    18612.429     19288.94   -34361.544    1074.6249   -2856.5824   -1252.8559    72.231111    62.553978    36.037112    1179.9419   -312019.97 
    1020    182.77217     162832.6    72.231786    72.231786    36.037448          120    19289.005    19163.493   -34213.287    777.04148   -2753.1018   -1097.7656    72.231786    62.554562    36.037448    1413.0701   -312016.86 
    1030    185.13772     162838.2    72.232613    72.232614    36.037861          120    18763.955    18967.994   -33390.363    805.69258   -2401.8623   -970.90893    72.232613    62.555279    36.037861    1447.1954   -312020.17 
    1040    186.45168    162844.78    72.233585    72.233586    36.038346          120    18285.286    18622.434   -34428.796     985.0623   -2429.5411   -797.18603    72.233585    62.556121    36.038346     826.3077      -312022 
    1050     186.4282    162851.86    72.234632    72.234633    36.038868          120    18181.633     18877.66    -35680.11     869.0456   -2501.9451   -817.11411    72.234632    62.557027    36.038868    459.72771   -312020.96 
    1060    185.81677     162859.1    72.235703    72.235703    36.039402          120     17833.62    18325.125   -35483.194    692.14712   -2559.5001   -675.24941    72.235703    62.557954    36.039402    225.18361   -312019.99 
    1070    187.42905    162866.31     72.23677     72.23677    36.039935          120    17811.334    18134.586   -34738.115    623.49081   -2209.4497   -399.60466     72.23677    62.558878    36.039935    402.60189   -312023.32 
    1080    185.40858    162873.65    72.237855    72.237855    36.040476          120    17991.813    18650.627   -34367.611    866.24974   -1792.8173   -285.14922    72.237855    62.559818    36.040476    758.27616   -312019.34 
    1090    185.48769    162881.35    72.238992    72.238992    36.041044          120    18372.169    18635.314   -34994.297     958.1021   -2186.1451    288.15228    72.238992    62.560803    36.041044    671.06241   -312019.65 
    1100    186.19856    162889.31     72.24017     72.24017    36.041631          120    17836.062    18181.928   -35552.448    1068.0911   -2085.9995    16.399981     72.24017    62.561823    36.041631    155.18053   -312021.52 
    1110    185.23701    162897.12    72.241324    72.241325    36.042207          120    17062.461    17458.199   -36526.714     1225.607    -2795.859    -307.8296    72.241324    62.562823    36.042207    -668.6847   -312020.49 
    1120    186.18925    162904.18    72.242367    72.242368    36.042727          120    16746.141    17572.963   -36145.189    1371.5933    -2535.306    2.6916312    72.242367    62.563726    36.042727   -608.69511   -312023.38 
    1130    184.71885    162910.52    72.243304    72.243305    36.043195          120    17097.511     18254.14   -35434.429     1594.769   -2255.3853   -43.449721    72.243304    62.564538    36.043195   -27.592752   -312022.29 
    1140    184.74065    162916.65     72.24421    72.244211    36.043647          120    17129.243    19265.957   -34343.045    1528.0078   -2458.9085   -108.93278     72.24421    62.565322    36.043647    684.05152   -312023.88 
    1150    183.95887    162923.11    72.245166    72.245167    36.044124          120    17565.092    18916.068   -34123.532    1481.9184   -2096.2843   -200.50607    72.245166     62.56615    36.044124    785.87557   -312023.96 
    1160    185.20626    162930.02    72.246186    72.246187    36.044633          120    17862.204    18695.106   -34812.808    1465.4641   -2834.4855   -645.88435    72.246186    62.567033    36.044633    581.50034   -312027.74 
    1170    182.66184    162937.21    72.247249     72.24725    36.045163          120    17518.043    18708.165   -34518.738    1272.8881   -2849.9755    -862.4675    72.247249    62.567954    36.045163    569.15645   -312024.88 
    1180    183.30032    162944.58    72.248339    72.248339    36.045707          120    16497.555    18357.894   -35232.106      1246.26   -2573.7033   -426.16421    72.248339    62.568897    36.045707   -125.55267    -312028.4 
    1190    181.65079    162951.69    72.249389     72.24939    36.046231          120    16379.351     18227.09   -34664.759    1647.4301   -2227.7357   -234.18603    72.249389    62.569807    36.046231   -19.439296   -312027.44 
    1200    183.40722    162958.55    72.250404    72.250404    36.046737          120    17072.617    17840.329   -34459.097     1737.743   -2052.3309   -396.56704    72.250404    62.570686    36.046737    151.28315   -312033.02 
    1210    181.92676    162965.29    72.251399      72.2514    36.047234          120    16944.385    17546.138   -35084.131    1661.2208   -2136.1602   -428.68842    72.251399    62.571548    36.047234   -197.86943   -312032.37 
    1220    180.34537    162971.66    72.252341    72.252342    36.047704          120    16987.922    17266.942   -35279.327    1627.3887   -1479.4646   -145.44758    72.252341    62.572364    36.047704   -341.48773   -312031.64 
    1230     180.1725    162977.52    72.253207    72.253208    36.048136          120    16215.771    17324.869   -35237.734    1749.1789   -1312.1346   -554.35018    72.253207    62.573114    36.048136    -565.6981   -312033.23 
    1240    178.59375    162982.73    72.253977    72.253977     36.04852          120    16258.132    17518.641   -35507.494    1866.3934   -1171.9855    -948.7179    72.253977     62.57378     36.04852   -576.90724   -312032.77 
    1250    178.68217    162987.27    72.254648    72.254648    36.048854          120    16483.418    17421.512    -35898.76    1721.0209   -1673.2444   -770.96146    72.254648    62.574361    36.048854   -664.60988   -312035.01 
    1260    176.28846    162991.11    72.255215    72.255216    36.049138          120    16403.161    17496.294   -35847.105    1725.2821   -2187.8061   -693.22551    72.255215    62.574853    36.049138   -649.21685   -312032.95 
    1270    177.78009    162994.27    72.255682    72.255683    36.049371          120    16625.203     17577.52   -35937.069    1432.4234   -2478.4373   -244.71098    72.255682    62.575257    36.049371   -578.11549   -312037.69 
    1280     177.4137    162996.82    72.256059    72.256059    36.049558          120    17116.481    17136.263   -36373.111     1139.855   -2241.6904   -526.41859    72.256059    62.575583    36.049558   -706.78894   -312039.02 
    1290    175.28582    162998.73    72.256341    72.256341    36.049699          120    17479.851    17343.556   -36163.265    1428.1505    -1893.394   -136.66416    72.256341    62.575827    36.049699   -446.61911   -312036.45 
    1300    176.15774    163000.19    72.256557    72.256558    36.049807          120    17523.002    17608.467   -35682.525    1538.8096   -1605.3103    436.96089    72.256557    62.576015    36.049807   -183.68529    -312039.6 
    1310    176.12359    163001.43    72.256741    72.256741    36.049899          120    17154.343    17851.785   -35421.126    1338.0487   -1539.2499    237.07399    72.256741    62.576174    36.049899   -138.33263   -312041.04 
    1320    175.14307    163002.53    72.256903    72.256903     36.04998          120    17023.337    17735.034   -35078.564    1582.2344   -1912.5957    281.11853    72.256903    62.576314     36.04998   -106.73086   -312040.67 
    1330    175.28028    163003.48    72.257043    72.257044     36.05005          120    16635.338    17634.543   -35265.897    1351.4592   -1573.6358    330.04305    72.257043    62.576436     36.05005   -332.00545   -312041.79 
    1340    175.15604    163004.15    72.257142    72.257142    36.050099          120    16592.371    17739.966   -34755.435     1355.586   -1647.6421    349.80868    72.257142    62.576521    36.050099   -141.03267   -312042.48 
    1350    176.27234    163004.66    72.257218    72.257218    36.050137          120    17481.184    17891.691   -35588.264    1589.9008   -2379.8219     302.0903    72.257218    62.576587    36.050137    -71.79632   -312044.85 
    1360    176.38063    163005.08     72.25728    72.257281    36.050168          120    17357.279    18051.002   -36067.368     1531.933   -3132.4318    208.33969     72.25728    62.576641    36.050168   -219.69558   -312045.29 
    1370    173.80539    163005.31    72.257314    72.257314    36.050185          120    17276.081     17990.62    -36026.35    1551.8961   -2637.0022    -16.80294    72.257314     62.57667    36.050185   -253.21627   -312041.15 
    1380    174.93268    163005.29    72.257311    72.257312    36.050183          120    16781.418     17871.21    -36177.13    1160.1108   -1670.0549   -81.929915    72.257311    62.576668    36.050183   -508.16744    -312044.1 
    1390    175.78452    163004.88    72.257251    72.257251    36.050153          120    16672.627    17986.829   -35897.045    1088.5753   -1738.7872     26.80789    72.257251    62.576615    36.050153   -412.52973   -312045.55 
    1400    176.71968    163004.15    72.257142    72.257142    36.050099          120    16950.749    18041.108   -35895.397    1494.9658   -1987.0356    504.79736    72.257142    62.576521    36.050099   -301.17979   -312047.31 
    1410    173.94718    163003.18    72.256999       72.257    36.050028          120    16837.203    18003.243   -35413.673    1400.7835   -2272.5285    10.553329    72.256999    62.576397    36.050028   -191.07552   -312041.78 
    1420    176.22362    163002.06    72.256834    72.256834    36.049945          120    17414.498    17679.936    -35926.61     1376.796   -2361.2177     431.6002    72.256834    62.576254    36.049945   -277.39216    -312046.1 
    1430    175.17686    163000.72    72.256636    72.256637    36.049846          120    16803.407    17951.421   -36428.914    1404.9258   -2270.6532    383.94456    72.256636    62.576083    36.049846   -558.02889   -312043.51 
    1440    175.68587    162998.92     72.25637    72.256371    36.049714          120    16473.723    17370.891   -36767.709    899.25888   -1876.0368    230.64812     72.25637    62.575853    36.049714   -974.36512   -312043.71 
    1450    177.29344    162996.38    72.255994    72.255994    36.049526          120    16718.024    17205.069   -36880.571    988.32653   -1820.8267     75.27867    72.255994    62.575527    36.049526   -985.82601   -312045.93 
    1460     176.4202    162993.12    72.255512    72.255513    36.049286          120    16934.513    17891.061   -36154.064    1323.0442   -1989.4544   -333.04439    72.255512     62.57511    36.049286   -442.82983   -312043.36 
    1470    174.30276    162989.56    72.254986    72.254986    36.049023          120    17245.596    17891.042   -35521.987    1647.5031   -2529.5482   -483.99547    72.254986    62.574654    36.049023   -128.44953   -312037.83 
    1480    177.33941    162985.95    72.254453    72.254454    36.048757          120    16822.991    17558.644   -35382.325    1306.6362   -2870.4481   -419.71179    72.254453    62.574192    36.048757   -333.56316    -312041.9 
    1490     178.7024    162982.17    72.253895    72.253895    36.048479          120    16746.358    17187.658   -35372.824    1242.7694   -2759.2026   -174.39265    72.253895    62.573709    36.048479   -479.60285   -312042.87 
    1500    177.98493    162978.16    72.253302    72.253302    36.048183          120    16901.738    17868.837   -34740.657    1128.4678   -3023.4361   -485.64358    72.253302    62.573196    36.048183    9.9728763   -312039.83 
    1510    179.24576    162974.24    72.252722    72.252723    36.047894          120    16792.421     18167.54   -34806.824    1287.9298   -2900.1505    371.54591    72.252722    62.572694    36.047894    51.045675   -312040.68 
    1520    177.93951    162970.49    72.252169    72.252169    36.047618          120     16642.62     18665.47   -34664.253    1594.7725   -2143.2811    446.77959    72.252169    62.572214    36.047618    214.61239   -312036.84 
    1530    180.38409    162967.07    72.251663    72.251664    36.047365          120    16745.952    19177.833   -33720.171    1602.1731   -1723.2821    108.98803    72.251663    62.571777    36.047365    734.53784   -312039.32 
    1540    179.80627    162964.32    72.251257    72.251257    36.047163          120    17276.675    18638.038   -33954.107    1861.2912   -1642.9983   -259.01044    72.251257    62.571424    36.047163    653.53523    -312036.1 
    1550    181.28685    162962.18     72.25094    72.250941    36.047005          120    17532.038    18209.587    -34973.59    1991.1026    -1687.201    -69.58906     72.25094     62.57115    36.047005    256.01169   -312037.09 
    1560    180.40109    162960.35     72.25067    72.250671     36.04687          120    17676.526     18026.67   -34763.547    1874.8409   -1863.2799   -183.40557     72.25067    62.570916     36.04687    313.21619   -312033.94 
    1570    181.38697    162958.83    72.250445    72.250445    36.046758          120    17681.922    18003.239   -34834.866    1706.7014   -2322.0114   -171.10664    72.250445    62.570721    36.046758    283.43178   -312034.28 
    1580    181.54082    162957.61    72.250264    72.250265    36.046667          120    17925.948    18445.437   -35307.294    1844.5334   -2511.8526   -179.64169    72.250264    62.570565    36.046667    354.69689   -312032.77 
    1590    181.35843    162956.71    72.250132    72.250133    36.046602          120    17584.489    18660.874   -35215.559    1838.2674   -2495.1901   -135.09407    72.250132    62.570451    36.046602    343.26833   -312030.97 
    1600    182.07959    162956.13    72.250046    72.250047    36.046559          120    17561.437    18944.919   -35702.996    1917.4374   -2464.6106   -744.34269    72.250046    62.570376    36.046559    267.78684   -312031.17 
    1610    182.78691    162955.82    72.250001    72.250001    36.046536          120    17773.686    18785.323   -35226.723    1949.2642    -2670.192   -737.21763    72.250001    62.570337    36.046536    444.09497   -312031.62 
    1620    183.26726    162955.91    72.250014    72.250015    36.046543          120    17975.959    18534.966   -34899.765    1892.5917     -2009.23      114.796    72.250014    62.570348    36.046543    537.05349   -312031.16 
    1630    182.14633    162956.46    72.250094    72.250095    36.046583          120    18286.455    18336.037   -35230.383    1278.5624   -1843.4643    157.27973    72.250094    62.570418    36.046583    464.03633   -312027.85 
    1640    183.39778    162957.38    72.250231    72.250232    36.046651          120    17921.087    18490.986   -35113.699    824.17235   -2156.2377      271.946    72.250231    62.570536    36.046651     432.7914   -312028.96 
    1650    184.43897    162958.66     72.25042     72.25042    36.046745          120    17576.328    18523.379   -34317.199    581.15132   -2468.3087    306.34349     72.25042      62.5707    36.046745    594.16961   -312030.48 
    1660    184.17329    162960.42     72.25068    72.250681    36.046875          120    17802.622    19040.727   -34433.727    775.52705    -2595.961   -430.93434     72.25068    62.570925    36.046875    803.20769   -312029.29 
    1670     183.8687    162962.77    72.251027    72.251028    36.047048          120    18022.736    19094.051   -35241.389    1318.0263   -2489.3757   -1214.2577    72.251027    62.571226    36.047048    625.13277   -312027.85 
    1680    183.81949    162965.58    72.251443    72.251443    36.047255          120     18225.51    18678.493   -35135.505    1867.4342   -2500.7224    -1644.545    72.251443    62.571585    36.047255    589.49927   -312027.33 
    1690    185.02127    162968.78    72.251915    72.251916    36.047491          120    18119.763    18122.143   -35406.055    1797.9861   -2379.6474   -1002.0037    72.251915    62.571995    36.047491    278.61732   -312029.43 
    1700    184.52011    162972.12     72.25241     72.25241    36.047738          120    18134.088    17788.159   -35738.689    1507.7641   -2417.1366   -660.26655     72.25241    62.572423    36.047738    61.185894   -312028.28 
    1710    184.93944    162975.45    72.252901    72.252902    36.047983          120    17762.467    18460.481   -35938.318    1521.0593   -2342.8015   -391.98844    72.252901    62.572849    36.047983    94.876804      -312029 
    1720    184.16217    162978.76    72.253391    72.253391    36.048227          120    17529.603    18197.758   -35497.469    1409.9577   -2256.9121   -360.48641    72.253391    62.573273    36.048227     76.63071   -312027.67 
    1730    183.61653    162982.06    72.253879    72.253879    36.048471          120    17353.448    18033.889    -34535.96    1528.0601   -2617.5413    55.383586    72.253879    62.573695    36.048471    283.79224   -312027.24 
    1740    185.43406    162985.48    72.254384    72.254385    36.048723          120    17248.037    18607.919   -35181.246     1812.817   -2244.3631   -16.952223    72.254384    62.574133    36.048723    224.90307   -312031.66 
    1750    184.13431    162989.04    72.254909     72.25491    36.048985          120    17664.519    18859.834   -35295.079    1987.8176   -2363.4744   -516.71124    72.254909    62.574588    36.048985    409.75808   -312029.64 
    1760    185.81079    162992.82    72.255468    72.255469    36.049264          120    17864.253     18154.73   -34942.619    1819.2028   -2234.8393   -419.88224    72.255468    62.575072    36.049264    358.78812   -312034.16 
    1770     184.6462     162996.8    72.256057    72.256057    36.049557          120    17372.653    18220.043   -35029.102    1206.9305   -1622.6544    -106.2937    72.256057    62.575581    36.049557    187.86454   -312033.02 
    1780    183.84009    163000.81    72.256649    72.256649    36.049853          120    17299.771    17574.166   -35804.078     1135.383   -1772.8134   -223.38423    72.256649    62.576094    36.049853   -310.04698   -312032.84 
    1790    182.75095    163004.46    72.257188    72.257188    36.050122          120    17212.777    17132.821    -36505.13    1016.5177   -1895.9108   -152.42136    72.257188    62.576561    36.050122   -719.84382    -312032.2 
    1800    181.56052    163007.36    72.257616    72.257617    36.050335          120     15901.63    17047.589   -37012.189    1195.5739   -2057.5603   -248.38684    72.257616    62.576932    36.050335   -1354.3234   -312031.41 
    1810    182.11521     163009.1    72.257874    72.257875    36.050464          120    15773.291    17527.617   -36679.053    1615.0129   -2688.8844   -251.97424    72.257874    62.577155    36.050464   -1126.0482   -312034.03 
    1820    181.85138    163009.84    72.257983    72.257984    36.050519          120    16833.287    17432.164   -36162.575    1471.6229   -3010.9248    510.20165    72.257983     62.57725    36.050519   -632.37433   -312035.36 
    1830    183.65241    163010.03    72.258011    72.258012    36.050533          120     17364.44    18459.356   -35444.258    1480.0357   -2607.3558     656.6324    72.258011    62.577274    36.050533    126.51258   -312040.85 
    1840    182.74716    163010.34    72.258057    72.258058    36.050555          120    17895.234    19400.131   -34362.875     1373.626   -2670.6772    858.56275    72.258057    62.577314    36.050555    977.49696   -312040.61 
    1850    180.33438    163011.38    72.258211    72.258211    36.050632          120    17715.382      18779.7   -34450.537    1085.4559   -2349.1974   -214.02543    72.258211    62.577447    36.050632    681.51524   -312038.08 
    1860    179.81393    163012.96    72.258445    72.258445    36.050749          120    17425.557    18496.741   -35318.805    1089.8867   -1863.0516   -347.81836    72.258445    62.577649    36.050749    201.16434   -312038.95 
    1870     180.0825    163014.68    72.258698    72.258699    36.050875          120    17054.662      18791.8   -36348.499    1672.2989   -1949.5368    649.89493    72.258698    62.577869    36.050875   -167.34543   -312041.33 
    1880    180.44229    163016.24    72.258929     72.25893     36.05099          120    17108.781    18552.064   -36209.614    2095.7645   -1640.9626    640.76494    72.258929    62.578069     36.05099   -182.92301   -312044.13 
    1890    178.06756    163017.63    72.259134    72.259135    36.051093          120    17556.738    18149.634   -35522.837    1843.2569   -1726.2003   -51.761932    72.259134    62.578247    36.051093    61.178587   -312041.42 
    1900     178.0974    163019.03    72.259341    72.259342    36.051196          120    17568.935    18782.571   -35246.535    1581.8013   -2001.6668    77.456322    72.259341    62.578426    36.051196    368.32363   -312042.89 
    1910    179.52452    163020.71    72.259589    72.259589     36.05132          120     18050.08    19138.037   -35066.028    1210.6802   -2144.9891    181.16322    72.259589     62.57864     36.05132    707.36297    -312047.3 
    1920    178.46374    163022.91    72.259914    72.259914    36.051482          120    17982.964    18477.244   -34784.212    860.97755   -2392.2375   -25.227798    72.259914    62.578921    36.051482    558.66509   -312047.32 
    1930    177.06254    163025.46    72.260291    72.260292     36.05167          120    17041.421    17834.186   -35675.446    1578.4964   -2700.7044    397.95878    72.260291    62.579249     36.05167    -266.6131   -312045.77 
    1940    178.07894    163027.78    72.260633    72.260634    36.051841          120    17427.918    17630.336   -36555.049    2095.7085   -2897.1946    99.228105    72.260633    62.579545    36.051841   -498.93158   -312049.36 
    1950    175.18027     163029.6    72.260902    72.260903    36.051975          120    17420.977    17360.083   -37001.639     1994.493    -2635.996   -34.062617    72.260902    62.579778    36.051975   -740.19291   -312045.47 
    1960    176.75268    163030.73     72.26107     72.26107    36.052058          120     17100.76    17060.181   -37126.029    1448.3659    -2247.561    384.82706     72.26107    62.579923    36.052058   -988.36252   -312049.72 
    1970    176.75849    163031.05    72.261117    72.261118    36.052082          120    17095.382    17669.487   -36546.432    1253.6922   -2138.6291   -111.56755    72.261117    62.579964    36.052082   -593.85423   -312050.86 
    1980     177.0172    163030.81    72.261081    72.261082    36.052064          120    17035.569    17595.945    -36483.81    1177.9651    -2602.701   -739.40308    72.261081    62.579933    36.052064   -617.43183   -312052.16 
    1990    174.95377    163030.05    72.260969     72.26097    36.052008          120    16916.658    17656.457   -36338.805    1306.9557    -3023.469    -880.8247    72.260969    62.579836    36.052008   -588.56299   -312049.43 
    2000    175.62586     163028.8    72.260785    72.260785    36.051916          120    17129.983    17440.338   -36481.558    1653.7535   -2964.3195   -928.47687    72.260785    62.579676    36.051916   -637.07891   -312051.26 
    2010    175.45183    163027.09    72.260532    72.260533     36.05179          120    17506.126    18055.391   -35935.819    2121.2511   -2181.6289   -355.31336    72.260532    62.579457     36.05179   -124.76708   -312051.26 
    2020    174.56026    163025.31    72.260269    72.260269    36.051659          120    18013.246    18495.461   -35524.964    2125.4419   -2191.4603   -40.202017    72.260269    62.579229    36.051659    327.91406   -312049.54 
    2030      177.251    163023.85    72.260053    72.260054    36.051551          120    18207.531    18463.227   -34800.518    1865.3488   -2360.4799    343.73955    72.260053    62.579042    36.051551    623.41316   -312054.89 
    2040    176.17278    163022.93    72.259917    72.259917    36.051483          120     17652.42    18345.288   -34829.039    1740.2776   -2597.9555    275.49597    72.259917    62.578924    36.051483    389.55622   -312052.85 
    2050    175.84286    163022.37    72.259834    72.259835    36.051442          120    17242.988    18438.004   -35466.763      1135.31   -2202.1203    284.07234    72.259834    62.578853    36.051442    71.409493   -312052.16 
    2060     176.4627     163021.9    72.259764    72.259765    36.051407          120    17451.651    18140.509    -35892.16    1217.9811   -1925.7203    419.20603    72.259764    62.578792    36.051407   -100.00032    -312052.8 
    2070    175.63918    163021.34    72.259682    72.259683    36.051366          120    17238.627    18299.759   -36496.265    1624.3504    -2197.862    353.04425    72.259682    62.578721    36.051366   -319.29323   -312050.59 
    2080    176.83681    163020.53    72.259563    72.259563    36.051307          120    17325.606    17954.079    -35968.46    1735.8504   -2604.8942     470.8374    72.259563    62.578618    36.051307   -229.59167   -312052.33 
    2090    174.89945    163019.57    72.259421    72.259421    36.051236          120    17600.274    18130.547   -35436.838    1978.6038   -2926.7442    75.765587    72.259421    62.578495    36.051236    97.994231   -312048.03 
    2100    177.17619    163018.69     72.25929    72.259291    36.051171          120     17565.52    17612.674   -35017.203    2053.7378    -2475.159    452.95079     72.25929    62.578382    36.051171    53.663518   -312051.73 
    2110     175.9905    163017.86    72.259168    72.259169     36.05111          120    17504.632    17702.237   -35403.882    1637.4882   -2701.3986    225.66902    72.259168    62.578276     36.05111   -65.671058   -312048.73 
    2120    178.32079    163017.02    72.259045    72.259045    36.051048          120    17431.105    17638.332    -34850.21    1567.0727   -2743.2701    -31.02826    72.259045    62.578169    36.051048    73.075771   -312052.15 
    2130    176.97664    163016.29    72.258936    72.258937    36.050994          120    17888.915    17978.925   -34770.587    1501.3276   -2326.9658    389.89482    72.258936    62.578075    36.050994    365.75103   -312048.42 
    2140    177.65277    163015.85    72.258872    72.258872    36.050962          120    17717.711     18097.57    -35193.85    1732.6119   -2436.4794    478.76828    72.258872    62.578019    36.050962    207.14369   -312048.14 
    2150    179.71065    163015.59    72.258832    72.258833    36.050942          120    17578.531    17740.397   -35429.322    2083.1836   -2567.8321     498.6778    72.258832    62.577985    36.050942   -36.797843   -312050.42 
    2160     178.6789    163015.35    72.258797    72.258797    36.050924          120    17732.987    18138.168   -34910.615    2225.4645   -2529.1556    702.88279    72.258797    62.577954    36.050924    320.17988   -312047.08 
    2170    178.05651    163015.38    72.258802    72.258802    36.050927          120    18030.453     18463.66   -34739.199    1776.1807   -2693.3106     740.3743    72.258802    62.577959    36.050927    584.97161   -312044.44 
    2180    178.88158     163015.9    72.258879    72.258879    36.050965          120    18433.828    18563.156   -34842.301    1368.6357   -2702.0597    -72.23478    72.258879    62.578025    36.050965    718.22776   -312044.78 
    2190    180.59088    163016.99     72.25904     72.25904    36.051046          120     17747.49    18327.764   -34609.576     1362.341   -2511.6686   -508.70874     72.25904    62.578165    36.051046    488.55945   -312046.67 
    2200    179.51494    163018.46    72.259257    72.259258    36.051154          120    17629.241    18041.795   -35326.041    1160.0414   -2271.9768    235.03704    72.259257    62.578353    36.051154    114.99829   -312042.56 
    2210    180.69241    163020.05    72.259492    72.259493    36.051271          120    18310.776    17954.253   -34891.855    1896.3685   -2305.1116    641.71864    72.259492    62.578556    36.051271    457.72439   -312043.05 
    2220    179.02819    163022.03    72.259784    72.259784    36.051417          120    18953.613    18496.406   -34282.409    1826.6319   -1786.3978    335.97385    72.259784    62.578809    36.051417    1055.8701   -312037.96 
    2230    182.35313     163024.8    72.260193    72.260193    36.051621          120    19025.091    18457.195   -34583.154    1001.1302   -1492.0187    183.48537    72.260193    62.579163    36.051621    966.37739   -312043.12 
    2240     180.9319    163028.29    72.260709     72.26071    36.051879          120    18803.639    18066.938   -35446.204    764.28212   -2050.5047    223.26715    72.260709    62.579611    36.051879    474.79105   -312038.85 
    2250    183.11729    163032.11    72.261274    72.261274     36.05216          120     18527.14    17704.071   -35847.883    936.08377   -1980.6379    248.56318    72.261274    62.580099     36.05216    127.77585    -312041.5 
    2260    183.24509    163035.97    72.261843    72.261844    36.052445          120    18728.344    17751.237   -36000.133    988.02116   -1816.5413    -136.3103    72.261843    62.580593    36.052445    159.81597    -312040.5 
[...]
   99200    181.50366    163453.71    72.323509    72.323509     36.08321          120    16755.268    18641.537   -37396.724     2651.155   -3314.5573   -775.93371    72.323509    62.633996     36.08321   -666.63935    -312090.4 
   99210    180.32928    163455.37    72.323753    72.323754    36.083332          120    17333.794    18253.313   -38191.364    2274.5537    -2903.698   -432.93853    72.323753    62.634208    36.083332   -868.08569   -312088.42 
   99220     178.0444    163456.33    72.323895    72.323896    36.083403          120    18208.018    18413.509   -37578.694    2302.6251   -3702.7706   -648.54113    72.323895    62.634331    36.083403   -319.05578   -312083.84 
   99230      180.054    163457.02    72.323996    72.323997    36.083453          120    18444.535    18833.807   -36591.207    2266.8121   -4068.1977   -254.10091    72.323996    62.634419    36.083453    229.04507   -312087.24 
   99240    180.76091    163457.86    72.324121    72.324121    36.083515          120    18134.753    18720.008   -36432.557    1922.4927   -3531.4982   -4.4428845    72.324121    62.634526    36.083515     140.7346   -312088.15 
   99250    180.16678    163458.82    72.324263    72.324264    36.083587          120    17313.045    19065.524   -36328.563    2001.6393   -3236.3784    416.54637    72.324263     62.63465    36.083587    16.668662   -312086.58 
   99260    180.84627    163459.79    72.324405    72.324406    36.083657          120    16631.386    19351.973    -36828.44    2565.5769   -3271.9109    319.04581    72.324405    62.634773    36.083657   -281.69374   -312087.98 
   99270    180.34797    163460.49    72.324509    72.324509    36.083709          120    16722.725    18758.599   -37511.077    2608.2543   -3422.4431   -102.28399    72.324509    62.634863    36.083709   -676.58446   -312086.55 
   99280    180.28111    163460.62    72.324527    72.324528    36.083718          120    16613.437    18662.619   -37762.926    2662.0021   -3368.6057   -595.50284    72.324527    62.634879    36.083718   -828.95654   -312085.76 
   99290    180.13837    163460.02     72.32444     72.32444    36.083675          120    16523.109    18212.458   -37694.862    2331.9054   -3263.5903    32.873884     72.32444    62.634803    36.083675   -986.43144   -312085.76 
   99300    181.04578    163458.58    72.324227    72.324228    36.083569          120    16820.301    17632.185   -37738.153    1697.8931   -2988.9294    419.23765    72.324227    62.634619    36.083569   -1095.2223   -312087.27 
   99310    181.36252    163456.23     72.32388    72.323881    36.083396          120    17063.467    18075.651   -37460.205    2132.1493   -2369.7839   -414.90761     72.32388    62.634318    36.083396    -773.6957   -312088.31 
   99320    181.95494    163453.23    72.323438    72.323439    36.083175          120    17042.464    18854.979   -36675.363    2504.2285   -2351.6595   -335.17227    72.323438    62.633935    36.083175    -259.3066    -312088.5 
   99330    181.53678    163449.96    72.322956    72.322956    36.082934          120    16757.549    19364.161   -36905.076    2825.5277   -3067.2219   -728.82877    72.322956    62.633518    36.082934   -261.12185   -312086.95 
   99340    180.30188     163446.5    72.322446    72.322447     36.08268          120    17486.229    19655.041   -37049.422    2730.3411   -3068.6472   -486.59574    72.322446    62.633076     36.08268     30.61618   -312084.64 
   99350    180.53729    163443.03    72.321934    72.321934    36.082424          120    17469.516    18915.485   -36980.055    2461.6102   -2807.7816    369.03698    72.321934    62.632633    36.082424   -198.35136   -312084.64 
   99360    180.62304    163439.42    72.321401    72.321402    36.082159          120    17776.247    18440.214   -36797.636    2154.9868   -2623.6063    51.793459    72.321401    62.632171    36.082159   -193.72503   -312084.65 
   99370    181.33821    163435.59    72.320836    72.320837    36.081877          120    17078.049    18394.862   -37232.657    1706.8567   -2511.8016     -360.439    72.320836    62.631682    36.081877   -586.58225   -312085.82 
   99380    181.20812    163431.32    72.320206    72.320207    36.081562          120    17506.941    18791.794   -37359.164    2068.2523   -2851.8116   -336.20622    72.320206    62.631136    36.081562   -353.47627   -312085.32 
   99390    181.91576    163426.78    72.319537    72.319538    36.081229          120    18017.494    19377.623   -36590.774    2564.4343   -2697.0817   -217.28501    72.319537    62.630557    36.081229    268.11432   -312086.21 
   99400    180.21711    163422.42    72.318893    72.318894    36.080907          120     17659.19    19515.061   -36977.745    2848.7929   -2398.4946   -775.13455    72.318893    62.629999    36.080907    65.502036   -312082.65 
   99410    182.66117    163418.12    72.318259     72.31826    36.080591          120    17275.691     19100.02    -37025.51    2801.3551   -2405.5157   -285.28271    72.318259     62.62945    36.080591   -216.59938   -312087.85 
   99420    180.44674    163413.68    72.317604    72.317604    36.080264          120    17425.974    19118.592   -36890.482    2287.6423   -2434.3883   -449.72555    72.317604    62.628883    36.080264   -115.30546   -312083.89 
   99430    180.55302    163409.14    72.316935    72.316936    36.079931          120    17559.213    19068.583   -36616.117    2002.5836   -2488.5103   -284.01156    72.316935    62.628304    36.079931    3.8930102   -312083.87 
   99440    183.08211    163404.62    72.316267    72.316268    36.079597          120    17466.498    20048.987   -36919.133     2243.994   -3198.5364    -239.0359    72.316267    62.627725    36.079597    198.78411   -312088.65 
   99450    181.32376    163400.29    72.315629     72.31563    36.079279          120    18223.428    20294.248    -36470.35    2267.1375   -3261.9105   -167.25393    72.315629    62.627172    36.079279    682.44231    -312085.6 
   99460    182.91206    163396.49    72.315069    72.315069    36.078999          120    18016.985    19664.546   -36401.532    2717.5599   -3290.9988    55.336877    72.315069    62.626687    36.078999    426.66612   -312089.06 
   99470    180.47385    163393.11     72.31457    72.314571    36.078751          120    18213.663    19492.081    -36115.96    2751.0761   -3410.8036   -3.8793969     72.31457    62.626256    36.078751     529.9279   -312084.86 
   99480    180.82347    163390.14    72.314132    72.314133    36.078532          120    17194.636    19651.131   -36469.551    2387.3731   -3086.4535   -390.84663    72.314132    62.625876    36.078532    125.40545   -312086.31 
   99490    180.79005    163387.33    72.313717    72.313717    36.078325          120    17317.083    19599.092    -36976.38    2265.8997   -2956.7205   -882.51555    72.313717    62.625517    36.078325   -20.068542   -312086.81 
   99500    180.40502    163384.54    72.313306    72.313307     36.07812          120    18411.466     19179.81   -36732.169    2072.0839   -2429.3401   -198.03465    72.313306    62.625161     36.07812     286.3694    -312086.7 
   99510    180.32763    163382.02    72.312934    72.312935    36.077934          120    18594.581     19835.56   -36230.735    1757.5661   -2145.9706   -598.90088    72.312934    62.624839    36.077934    733.13545   -312087.02 
   99520    180.06729    163380.13    72.312655    72.312656    36.077795          120    18850.455    20047.453   -36011.209    2175.5101   -2343.1986   -156.16643    72.312655    62.624597    36.077795    962.23282   -312086.91 
   99530    180.13445       163379    72.312488    72.312489    36.077712          120    18195.763    19703.113   -36889.627    2420.4581   -2948.7477   -256.29203    72.312488    62.624452    36.077712     336.4164   -312087.67 
   99540    180.47835    163378.19    72.312369     72.31237    36.077652          120    17349.828    19494.592   -36510.549    1653.7301   -2692.9594   -308.39504    72.312369    62.624349    36.077652    111.29049   -312088.88 
   99550    181.46143    163377.51    72.312268    72.312268    36.077602          120    17628.777    19642.328   -36239.629    2038.3905   -3388.7958   -534.21697    72.312268    62.624262    36.077602     343.8252   -312091.69 
   99560    178.49833    163377.16    72.312216    72.312217    36.077576          120    18240.931    20081.481    -35953.72    2559.0138   -3525.7541   -632.63575    72.312216    62.624217    36.077576    789.56382   -312086.03 
   99570    180.87305    163377.43    72.312256    72.312257    36.077596          120    17700.312    20449.216    -36425.78    2658.7715   -3266.4251    83.719209    72.312256    62.624251    36.077596    574.58306   -312091.22 
   99580    180.45457    163378.21    72.312372    72.312372    36.077654          120    17568.886    19978.162   -36626.524    2589.1909   -2754.5474   -5.1042873    72.312372    62.624351    36.077654    306.84146   -312091.18 
   99590    178.52768    163379.25    72.312526    72.312526    36.077731          120    17472.223    19177.097   -36695.812    2713.3363   -2719.7526    28.363446    72.312526    62.624485    36.077731   -15.497458   -312087.99 
   99600     180.3989    163380.33    72.312684    72.312685     36.07781          120    17699.961    19183.817   -36163.154    3214.4311   -2960.1856    37.713131    72.312684    62.624622     36.07781    240.20802   -312091.36 
   99610    179.05601     163381.6    72.312871    72.312872    36.077903          120    17803.911    19297.094   -36011.501    3241.9448   -2987.9391    -30.21545    72.312871    62.624784    36.077903    363.16775   -312089.03 
   99620    180.17814    163383.16    72.313102    72.313102    36.078018          120    17778.978    18949.959   -36055.955    2854.9745   -3347.0743    3.4878752    72.313102    62.624984    36.078018    224.32738   -312091.64 
   99630    178.67752    163384.91     72.31336    72.313361    36.078147          120    17634.642    18813.089   -36026.353    2865.8507   -2695.4691   -86.474566     72.31336    62.625208    36.078147    140.45896   -312088.86 
   99640    179.38335    163386.79    72.313637    72.313638    36.078285          120     18107.08    19041.247   -36430.082    2727.9286   -2220.0602   -57.651878    72.313637    62.625448    36.078285    239.41492   -312090.29 
   99650    180.64747     163388.9    72.313949    72.313949    36.078441          120    18360.736    19617.413   -35899.269    2541.2218   -2815.8039   -294.79627    72.313949    62.625717    36.078441    692.96009   -312092.68 
   99660    178.19364    163391.55     72.31434    72.314341    36.078636          120    18403.187    19352.872   -36245.466    2741.1175   -3442.0766   -470.33354     72.31434    62.626057    36.078636    503.53089    -312088.2 
   99670    176.10986    163394.63    72.314794    72.314794    36.078862          120      18163.7    18732.198   -36305.549    2573.1721    -2798.434   -209.75415    72.314794    62.626449    36.078862    196.78315   -312084.09 
   99680    179.06114    163397.87    72.315272    72.315272    36.079101          120    18672.902    18581.864   -36667.917    2111.1304   -2992.6938    83.787754    72.315272    62.626863    36.079101    195.61643   -312089.89 
   99690    179.29841    163401.24    72.315769     72.31577    36.079349          120    18481.513    18870.063   -37167.831    2287.5366   -3159.1488    -109.3888    72.315769    62.627294    36.079349    61.248145   -312090.01 
   99700    179.66019    163404.66    72.316274    72.316274    36.079601          120    17669.754    18978.689   -37144.472    1899.6073   -3460.1856   -14.155691    72.316274    62.627731    36.079601   -165.34308   -312090.29 
   99710    179.88685    163407.93    72.316756    72.316756    36.079841          120    17362.686    19030.503   -37476.162    1543.4406    -3524.959   -2.6643562    72.316756    62.628148    36.079841   -360.99102   -312090.94 
   99720    180.96043    163410.91    72.317195    72.317196     36.08006          120     17565.64    19132.369   -37213.779    1850.5626   -3309.7139    230.91499    72.317195    62.628529     36.08006   -171.92337   -312092.91 
   99730    178.73438    163413.72    72.317611    72.317611    36.080268          120    17749.621    18924.885   -36982.165    1992.2613   -3288.9888    321.21734    72.317611    62.628889    36.080268   -102.55275   -312088.54 
   99740    179.41574    163416.44    72.318012    72.318012    36.080468          120    17312.804     18928.37   -36308.768    2065.7035   -2989.6983   -247.10731    72.318012    62.629236    36.080468   -22.531256   -312089.64 
   99750    181.30337    163419.14    72.318409     72.31841    36.080666          120    17098.244    19664.735   -36663.915    2216.8955   -2768.8027   -1057.4545    72.318409     62.62958    36.080666    33.021213   -312093.02 
   99760    178.27425    163421.86    72.318811    72.318811    36.080866          120    17516.162    19882.155   -37254.751    2406.4662   -3050.3999   -674.42822    72.318811    62.629928    36.080866    47.855215   -312086.93 
   99770    180.38169    163424.63     72.31922    72.319221    36.081071          120    17855.901    19510.754   -36542.475    2772.7595   -2784.7583   -327.55493     72.31922    62.630282    36.081071    274.72684   -312090.63 
   99780    179.37283    163427.62    72.319661    72.319661     36.08129          120    17951.957    19913.986   -36952.264    2763.8239   -2783.5697   -219.47231    72.319661    62.630664     36.08129    304.55974   -312088.63 
   99790    179.03723    163430.85    72.320136    72.320137    36.081528          120    18063.473    19923.747   -37791.573    2504.8039   -3223.9817      -212.29    72.320136    62.631076    36.081528    65.215691   -312087.54 
   99800    181.03529    163434.11    72.320619    72.320619    36.081768          120    18016.377      19324.6   -38238.411    2299.7868   -3305.4629   -536.43675    72.320619    62.631494    36.081768   -299.14462   -312090.58 
   99810    178.29803    163437.14    72.321066    72.321066    36.081991          120    17627.708    19054.164   -37825.498    2292.1107   -3380.8667   -124.20159    72.321066    62.631881    36.081991   -381.20887   -312085.06 
   99820    180.65783    163439.85    72.321465    72.321465     36.08219          120    17383.141    19118.715   -37176.629    2550.9988   -3259.1708   -553.53935    72.321465    62.632226     36.08219   -224.92432   -312089.37 
   99830    179.52759    163442.35    72.321834    72.321834    36.082375          120    17554.047    19225.749   -36685.945    2648.0456    -2814.775   -468.24579    72.321834    62.632546    36.082375    31.283965   -312086.64 
   99840    179.86963    163444.85    72.322203    72.322203    36.082559          120    17346.252    19366.011   -36551.988    2265.3777   -2810.0991   -701.79412    72.322203    62.632865    36.082559    53.424803   -312087.33 
   99850     180.7021    163447.37    72.322573    72.322574    36.082743          120    16612.753    18910.398   -36573.931    2237.6248   -3076.8667   -682.91468    72.322573    62.633186    36.082743   -350.26019   -312088.63 
   99860    180.64193    163449.59    72.322901    72.322901    36.082907          120    16454.176    18421.751   -36953.301    2191.4693   -3092.7492    48.249755    72.322901     62.63347    36.082907    -692.4579   -312088.43 
   99870    182.07464     163451.2    72.323138    72.323139    36.083025          120    16101.988     18408.86   -37287.115    2470.6605   -2941.3827   -101.67249    72.323138    62.633676    36.083025   -925.42233   -312090.66 
   99880    180.53154    163452.05    72.323264    72.323265    36.083088          120    16593.005    18593.859   -37218.242    3043.9212   -2698.2016   -291.83208    72.323264    62.633785    36.083088   -677.12601   -312087.52 
   99890    179.17545     163452.3    72.323301    72.323301    36.083106          120     16935.46    18553.177   -37319.601    2679.6518   -3194.7096   -714.48966    72.323301    62.633816    36.083106   -610.32137   -312084.36 
   99900    180.58179    163451.99    72.323255    72.323255    36.083083          120    16955.368    18246.964   -37846.098    2541.7145   -2776.9937   -647.83738    72.323255    62.633776    36.083083   -881.25549   -312086.82 
   99910    180.35443    163450.95    72.323102    72.323102    36.083007          120    17089.808    18708.492   -37463.931    2515.1407   -2839.0507   -171.47763    72.323102    62.633644    36.083007   -555.21038   -312085.69 
   99920     182.6917    163449.45    72.322881    72.322882    36.082897          120    17768.474    19206.424   -36657.003    2414.6809   -2673.1625   -443.26861    72.322881    62.633453    36.082897    105.96498   -312089.33 
   99930    181.41027    163448.01    72.322668    72.322668    36.082791          120    18068.399     19097.79   -36400.744    1977.5347   -2533.8548   -624.40966    72.322668    62.633268    36.082791    255.14821   -312086.49 
   99940    179.81367    163446.81    72.322491    72.322492    36.082703          120    17969.846    19638.795   -36036.765    1937.4791   -2470.6909   -472.61085    72.322491    62.633115    36.082703    523.95857   -312083.06 
   99950    179.93707    163446.05    72.322379     72.32238    36.082647          120    18404.791    19323.181   -36285.984    2690.7498    -2516.805   -51.621687    72.322379    62.633018    36.082647    480.66272   -312082.96 
   99960    181.75302     163445.7    72.322327    72.322327    36.082621          120    18117.388    19104.321   -36799.488    2727.2179   -3202.7191   -199.00827    72.322327    62.632973    36.082621    140.74003   -312085.84 
   99970    182.75663    163445.42    72.322286    72.322287      36.0826          120    17029.657    18162.473   -37200.767    2905.8744   -2826.7269   -345.14773    72.322286    62.632938      36.0826   -669.54548   -312086.98 
   99980    181.74677    163444.58    72.322162    72.322163    36.082538          120     17008.45    17557.791    -37925.93    2727.2848   -2719.2277   -159.46322    72.322162     62.63283    36.082538   -1119.8962   -312084.34 
   99990    182.77623    163442.82    72.321903    72.321903    36.082409          120    17268.695    18041.308   -38057.652    2196.4357   -2911.4175   -353.90347    72.321903    62.632606    36.082409    -915.8829   -312085.51 
  100000     180.9375     163440.3    72.321531    72.321532    36.082224          120    17188.411    18644.446   -36819.501    2430.9858   -2921.3283   -141.36374    72.321531    62.632284    36.082224   -328.88126   -312081.58 
Loop time of 31520.8 on 1 procs for 100000 steps with 14848 atoms

Performance: 0.274 ns/day, 87.558 hours/ns, 3.173 timesteps/s
92.3% CPU use with 1 MPI tasks x no OpenMP threads

MPI task timing breakdown:
Section |  min time  |  avg time  |  max time  |%varavg| %total
---------------------------------------------------------------
Pair    | 26932      | 26932      | 26932      |   0.0 | 85.44
Bond    | 0.018607   | 0.018607   | 0.018607   |   0.0 |  0.00
Kspace  | 1130.7     | 1130.7     | 1130.7     |   0.0 |  3.59
Neigh   | 2772.1     | 2772.1     | 2772.1     |   0.0 |  8.79
Comm    | 40.396     | 40.396     | 40.396     |   0.0 |  0.13
Output  | 1.1674     | 1.1674     | 1.1674     |   0.0 |  0.00
Modify  | 634.14     | 634.14     | 634.14     |   0.0 |  2.01
Other   |            | 10.64      |            |       |  0.03

Nlocal:    14848 ave 14848 max 14848 min
Histogram: 1 0 0 0 0 0 0 0 0 0
Nghost:    46790 ave 46790 max 46790 min
Histogram: 1 0 0 0 0 0 0 0 0 0
Neighs:    1.00686e+07 ave 1.00686e+07 max 1.00686e+07 min
Histogram: 1 0 0 0 0 0 0 0 0 0

Total # of neighbors = 10068557
Ave neighs/atom = 678.109
Ave special neighs/atom = 0
Neighbor list builds = 9849
Dangerous builds = 0
 
All done!
Total wall time: 8:50:18
