LAMMPS (16 Mar 2018)
Reading data file ...
  triclinic box = (0 0 0) to (9.208 7.97436 18.376) with tilt (-4.604 0 0)
  1 by 1 by 1 MPI processor grid
  reading atoms ...
  116 atoms
Finding 1-2 1-3 1-4 neighbors ...
  special bond factors lj:   0          0          0         
  special bond factors coul: 0          0          0         
  0 = max # of 1-2 neighbors
  0 = max # of 1-3 neighbors
  0 = max # of 1-4 neighbors
  1 = max # of special neighbors
Replicating atoms ...
  triclinic box = (0 0 0) to (73.664 63.7949 36.752) with tilt (-36.832 0 0)
  1 by 1 by 1 MPI processor grid
  14848 atoms
Finding 1-2 1-3 1-4 neighbors ...
  special bond factors lj:   0          0          0         
  special bond factors coul: 0          0          0         
  0 = max # of 1-2 neighbors
  0 = max # of 1-3 neighbors
  0 = max # of 1-4 neighbors
  1 = max # of special neighbors
  Time spent = 0.00392985 secs
PPPM initialization ...
WARNING: System is not charge neutral, net charge = -0.2048 (../kspace.cpp:302)
  using 12-bit tables for long-range coulomb (../kspace.cpp:321)
  G vector (1/distance) = 0.201681
  grid = 36 50 24
  stencil order = 5
  estimated absolute RMS force accuracy = 0.00105653
  estimated relative force accuracy = 7.33721e-05
  using double precision FFTs
  3d grid and FFT values/proc = 65395 43200
Neighbor list info ...
  update every 1 steps, delay 0 steps, check yes
  max neighbors/atom: 2000, page size: 100000
  master list distance cutoff = 15.3
  ghost atom cutoff = 15.3
  binsize = 7.65, bins = 15 9 5
  3 neighbor lists, perpetual/occasional/extra = 3 0 0
  (1) pair morse, perpetual
      attributes: half, newton on
      pair build: half/bin/newton/tri
      stencil: half/bin/3d/newton/tri
      bin: standard
  (2) pair buck, perpetual, copy from (1)
      attributes: half, newton on
      pair build: copy
      stencil: none
      bin: none
  (3) pair lj/cut/coul/long, perpetual, copy from (1)
      attributes: half, newton on
      pair build: copy
      stencil: none
      bin: none
Setting up Verlet run ...
  Unit style    : metal
  Current step  : 0
  Time step     : 0.001
Per MPI rank memory allocation (min/avg/max) = 145.7 | 145.7 | 145.7 Mbytes
Step Temp Volume Cella Cellb Cellc CellGamma Pxx Pyy Pzz Pxy Pxz Pyz Lx Ly Lz Press PotEng 
       0          175    172711.88       73.664    73.664001       36.752          120   -209433.34   -209458.37   -280443.03    15.078885   -4.4531466    5.9505885       73.664    63.794896       36.752   -233111.58   -309191.56 
      10    300.51819    172595.96    73.647516    73.647517    36.743776          120   -212417.96    -212503.7   -259777.02    94.813011   -13.538981   -139.86888    73.647516    63.780621    36.743776   -228232.89   -309475.23 
      20    556.18802    172255.61    73.599074    73.599075    36.719608          120   -211189.13   -210826.14   -200740.39    23.622446   -218.64669   -301.03338    73.599074    63.738669    36.719608   -207585.22   -310031.79 
      30    536.78752    171724.38    73.523338    73.523338    36.681822          120   -188074.34   -187578.05   -120283.38   -209.76409   -736.12522   -378.40384    73.523338    63.673079    36.681822   -165311.92   -310083.61 
      40    314.25318    171077.48    73.430898    73.430899    36.635702          120   -147714.56   -147670.16   -41047.489   -482.40525   -1114.3155   -430.46432    73.430898    63.593024    36.635702   -112144.07   -309729.59 
      50     392.7994    170415.28    73.336032    73.336032    36.588372          120   -105290.22   -105596.39   -4934.3987   -599.02257   -1186.8313    -595.0561    73.336032    63.510867    36.588372   -71940.336   -309924.78 
      60    709.03434    169814.13    73.249697    73.249698    36.545299          120    -74724.89   -74632.855   -38732.941   -579.57467    -2102.537   -454.19603    73.249697    63.436099    36.545299   -62696.895   -310577.86 
      70    901.31866    169293.93    73.174824    73.174824    36.507943          120   -52689.897    -52279.77   -100884.57   -1372.2131   -2440.9436   -346.00091    73.174824    63.371257    36.507943   -68618.079   -311028.08 
      80    754.62321    168837.78    73.109044    73.109044    36.475125          120   -38214.308    -38601.98   -145688.18   -1720.8696   -2995.9682    155.04042    73.109044     63.31429    36.475125   -74168.158   -310830.55 
      90    477.54233    168420.99    73.048835    73.048836    36.445086          120     -30997.7   -31537.275   -160709.63   -1891.8359   -3546.0456    88.953636    73.048835    63.262148    36.445086   -74414.868    -310361.7 
     100    501.34591    168026.34    72.991735    72.991736    36.416598          120   -16307.813    -16255.08   -140923.97   -1712.7135   -3317.8551   -461.95723    72.991735    63.212698    36.416598   -57828.955   -310455.24 
     110    675.07233    167654.01     72.93778     72.93778    36.389679          120    2631.9209    2683.8762   -97819.182   -1820.4894   -2719.4553   -547.16786     72.93778    63.165971    36.389679   -30834.462   -310846.42 
     120    666.45265    167315.27    72.888624    72.888625    36.365154          120    13204.847    13286.075   -45838.722   -1744.1081   -2283.9174   -1114.6917    72.888624    63.123401    36.365154   -6449.2663    -310894.7 
     130    557.99866    167020.15    72.845744    72.845744     36.34376          120    11205.242    12141.049   -5170.4147   -1809.4672   -2278.8536   -969.38383    72.845744    63.086265     36.34376    6058.6253   -310740.99 
     140    515.49819    166769.75    72.809322    72.809322    36.325589          120    6013.7787    6185.1349     6746.253   -1400.9224   -2236.2145   -793.87258    72.809322    63.054723    36.325589    6315.0555   -310703.11 
     150    575.46718    166555.77    72.778168    72.778169    36.310046          120   -1391.0969   -323.39208   -18076.812   -1793.4453   -1782.9267   -416.38645    72.778168    63.027743    36.310046   -6597.1002   -310864.18 
     160    632.40219    166361.29    72.749831    72.749831    36.295908          120   -11872.642   -9983.3555   -56051.352   -1530.3896   -1884.0556    -239.6705    72.749831    63.003202    36.295908   -25969.117   -311031.63 
     170    601.61623    166167.18    72.721524    72.721525    36.281786          120   -16858.524    -14575.24    -86101.86    -644.3863   -2444.4821   -571.70867    72.721524    62.978688    36.281786   -39178.541   -311036.11 
     180    520.06397    165961.84    72.691557    72.691558    36.266835          120   -13121.069   -10777.117   -102068.14   -322.42175   -2568.4275    -659.4861    72.691557    62.952736    36.266835   -41988.776   -310936.34 
     190    503.01985    165744.05    72.659747    72.659747    36.250964          120   -7650.9942   -5498.6174   -97983.653    277.10545   -2235.4861   -460.06051    72.659747    62.925187    36.250964   -37044.421   -310953.31 
     200    542.70396    165519.88    72.626973    72.626974    36.234613          120   -3174.8181   -1423.2281   -77226.484   -304.39176   -2258.9383   -400.54021    72.626973    62.896804    36.234613   -27274.843   -311080.87 
     210    542.90229    165298.94    72.594645    72.594645    36.218484          120    1246.7647    3135.1677   -52270.216   -944.08498   -2462.6781   -280.31051    72.594645    62.868807    36.218484   -15962.761   -311134.92 
     220    508.57978    165090.95    72.564184    72.564185    36.203286          120    5086.2177    6320.7153   -32870.141   -448.52267   -2128.7798   -1010.0815    72.564184    62.842427    36.203286   -7154.4028   -311119.05 
     230    487.48988    164901.92    72.536478    72.536479    36.189464          120    6082.0554    6312.2013   -27217.518   -238.52038   -1596.9116   -1744.2732    72.536478    62.818434    36.189464   -4941.0872   -311124.02 
     240     493.5973    164731.57    72.511492    72.511493    36.176998          120    4259.2427    3823.5791   -34082.087   -249.61253   -1949.6905   -1990.8079    72.511492    62.796795    36.176998   -8666.4217   -311180.05 
     250    507.96661    164574.53    72.488443    72.488444    36.165498          120    1999.2133    1012.6133   -49325.338   -112.41008   -1832.6973   -2028.3524    72.488443    62.776834    36.165498   -15437.837   -311255.27 
     260    494.48297     164423.6    72.466276    72.466276    36.154439          120    1739.6608   -188.27135   -64654.829   -160.42509   -1705.6038    -1989.059    72.466276    62.757636    36.154439    -21034.48   -311277.33 
     270    464.41213    164273.31     72.44419    72.444191     36.14342          120    2465.5125     539.8986   -72638.463   -926.70832    -1532.911     -1184.49     72.44419     62.73851     36.14342   -23211.017   -311266.39 
     280    449.62902    164121.72      72.4219      72.4219    36.132299          120    3721.7526    2707.4501   -69921.985   -737.79091    -1206.706   -557.29748      72.4219    62.719206    36.132299   -21164.261   -311280.49 
     290    454.16694    163970.66    72.399674    72.399674     36.12121          120    6956.9413    6823.0986   -58947.504   -680.66109   -1585.6062   -58.012683    72.399674    62.699957     36.12121   -15055.821   -311331.53 
     300    452.19096    163824.96    72.378224    72.378224    36.110508          120    10713.271    10735.884   -44045.304   -235.61239   -1891.2534    190.97399    72.378224    62.681381    36.110508   -7532.0497   -311369.77 
     310    440.00209    163690.01    72.358345    72.358345     36.10059          120    12730.018    12712.752   -30272.659    358.19764   -2159.9559    20.074193    72.358345    62.664165     36.10059    -1609.963   -311387.03 
     320    426.19309    163569.15    72.340532    72.340532    36.091703          120    11996.984    12638.402   -23944.098    49.351262   -2303.9322   -670.22399    72.340532    62.648739    36.091703    230.42942   -311399.14 
     330    422.58128     163462.1    72.324746    72.324746    36.083827          120    10083.041     11438.93   -26329.171   -270.22599   -2300.5535   -867.01714    72.324746    62.635068    36.083827   -1602.4001   -311428.94 
     340    419.52177     163365.6    72.310511    72.310512    36.076726          120    9468.0796    10412.185    -36143.76   -236.31698   -1719.5213   -767.99232    72.310511    62.622741    36.076726   -5421.1651   -311459.96 
     350    410.54969    163275.14    72.297163    72.297163    36.070066          120    9234.4283    10165.215   -47386.557   -379.71617    -1196.627   -606.07668    72.297163     62.61118    36.070066   -9328.9711    -311479.5 
     360    395.80425    163186.77    72.284116    72.284117    36.063557          120    9534.3015    11227.048   -53465.538   -465.15498   -1025.2109   -1563.8644    72.284116    62.599881    36.063557   -10901.396   -311486.01 
     370    384.11916    163098.81    72.271126    72.271127    36.057076          120    10777.709    13282.566   -53086.607   -558.73293   -2015.6083   -2246.9098    72.271126    62.588632    36.057076   -9675.4439   -311497.27 
     380    379.38551    163012.05     72.25831    72.258311    36.050682          120    13134.321     15504.83   -47522.919    -563.7024   -2068.0129    -1793.879     72.25831    62.577533    36.050682   -6294.5895   -311519.98 
     390    377.83796       162929    72.246037    72.246037    36.044558          120    15019.984    17324.673   -37933.238   -569.43747   -2611.3373   -1818.7195    72.246037    62.566904    36.044558   -1862.8603   -311548.85 
     400    365.65724    162852.76    72.234765    72.234766    36.038935          120    16320.829    18030.444   -28163.026    207.51344   -3188.6434   -1209.3777    72.234765    62.557143    36.038935    2062.7488   -311556.24 
     410    358.50285    162785.68    72.224846    72.224846    36.033986          120    17333.981    18542.765   -24463.557    216.89246   -2690.5675   -1341.6944    72.224846    62.548552    36.033986    3804.3964   -311571.86 
     420    356.81449    162728.17     72.21634    72.216341    36.029742          120     16680.55    18547.412   -26196.742   -138.27388   -2694.0241   -850.54082     72.21634    62.541186    36.029742    3010.4066   -311597.69 
     430    351.77128    162678.54    72.208998    72.208998    36.026079          120    15341.512    17325.075   -31824.443    181.36629   -2371.9496   -573.79107    72.208998    62.534827    36.026079    280.71452   -311617.43 
     440    341.95355    162633.78    72.202374    72.202375    36.022774          120    15114.053    15968.917   -38411.953    215.20821   -2404.8225    -450.3012    72.202374    62.529091    36.022774   -2442.9943   -311626.41 
     450    333.53321    162591.16    72.196067    72.196068    36.019628          120    16186.081    15590.349   -42113.977    16.656557   -2120.9927   -158.63202    72.196067    62.523629    36.019628   -3445.8491   -311636.84 
     460    328.47886    162549.73    72.189933    72.189934    36.016568          120      18953.6    17928.194   -41538.563     363.1043   -2336.7488   -471.27348    72.189933    62.518317    36.016568   -1552.2563   -311652.64 
     470    324.24764    162510.67    72.184152    72.184152    36.013683          120    20918.347    19252.608   -37672.736    759.25303   -2885.5136   -229.01096    72.184152     62.51331    36.013683    832.73967    -311669.7 
     480    319.44558    162475.75    72.178981    72.178981    36.011103          120    21031.692    20326.992   -31490.994    998.95576   -2245.0655   -431.62255    72.178981    62.508832    36.011103    3289.2301   -311685.29 
     490    312.97407    162446.56    72.174659    72.174659    36.008947          120    21080.644    21986.248   -27344.598    759.92858   -2437.1111   -440.74449    72.174659    62.505088    36.008947    5240.7648   -311696.54 
     500    306.42035    162424.19    72.171344    72.171345    36.007293          120    20799.345    22915.124   -25753.852    351.69571    -2468.066    418.56402    72.171344    62.502218    36.007293    5986.8725   -311706.07 
     510    303.27717    162408.57    72.169032    72.169032    36.006139          120    19811.115    22085.648    -27541.81    681.40238   -2294.6623    220.00179    72.169032    62.500215    36.006139    4784.9839   -311722.33 
     520    296.58667    162398.23      72.1675    72.167501    36.005375          120    19029.984    21030.694   -30953.138    556.11905   -2628.8779    102.37959      72.1675    62.498889    36.005375    3035.8466   -311731.75 
     530    291.64014    162391.29    72.166471    72.166472    36.004862          120    18579.577    20499.662   -35022.075    129.81954   -2579.1073     672.8118    72.166471    62.497998    36.004862    1352.3881   -311742.37 
     540     287.4208    162386.04    72.165694    72.165695    36.004474          120    17748.261    20474.676   -37798.999   -92.352949   -2734.2167    176.82262    72.165694    62.497325    36.004474    141.31278   -311754.81 
     550    280.97999    162381.42    72.165009     72.16501    36.004133          120    17543.946    20969.553   -37863.095   -122.86155    -2431.808    16.365751    72.165009    62.496732    36.004133    216.80127   -311762.57 
     560    277.86593    162377.41    72.164416    72.164416    36.003836          120    18457.195    21857.279   -35853.174   -421.84113   -2751.4035    109.86696    72.164416    62.496218    36.003836    1487.0999   -311775.59 
     570    272.09689    162375.02    72.164061    72.164061    36.003659          120    19581.576     22061.67   -31417.356    16.154769   -2500.5177    -246.0482    72.164061     62.49591    36.003659    3408.6299   -311783.43 
     580    269.98818    162375.63    72.164152    72.164152    36.003705          120    20475.367    22015.062   -28972.506    389.60242   -2188.7934    9.6481502    72.164152    62.495989    36.003705    4505.9746    -311796.9 
     590    265.78694    162379.99    72.164798    72.164798    36.004027          120    20006.778    22164.278   -27657.521    182.73798   -2270.7856    111.11547    72.164798    62.496549    36.004027    4837.8451   -311806.45 
     600     261.2491    162388.06    72.165993    72.165993    36.004623          120    19929.623    20788.735   -28945.635   -293.93675    -1838.616    337.82982    72.165993    62.497584    36.004623     3924.241   -311815.05 
     610    260.61326    162398.83    72.167589    72.167589     36.00542          120    19189.968    19674.527   -31842.487   -811.85187   -2429.8786   -378.39728    72.167589    62.498966     36.00542    2340.6696   -311830.98 
     620     254.8287    162410.92    72.169379     72.16938    36.006313          120    19115.842    19307.709   -33733.051    -867.0782   -2632.2376   -858.29712    72.169379    62.500517    36.006313    1563.5001   -311836.08 
     630     251.0865     162423.5    72.171243    72.171243    36.007242          120    19243.997    19133.518   -35315.521   -651.85057   -2396.9909   -1117.8618    72.171243     62.50213    36.007242    1020.6647   -311845.44 
     640     247.7446    162436.19    72.173122    72.173122     36.00818          120    19943.214    19525.756   -34550.949   -8.6062763   -2343.1382   -671.06082    72.173122    62.503758     36.00818    1639.3405   -311853.81 
     650     245.5433    162449.41     72.17508    72.175081    36.009157          120     20642.12     20038.52   -33223.293    238.76152   -2669.5959   -283.68725     72.17508    62.505454    36.009157    2485.7827   -311864.52 
     660      240.866    162463.88    72.177222    72.177223    36.010226          120    20437.093    21026.108   -31493.713   -35.383685   -2470.3212   -468.63628    72.177222    62.507309    36.010226    3323.1625   -311870.35 
     670    237.73556    162480.19    72.179639    72.179639    36.011431          120    20332.294    21250.623   -30127.182   -231.45741   -1521.5725   -501.16683    72.179639    62.509401    36.011431    3818.5782   -311878.77 
     680    231.76036    162498.65    72.182371    72.182372    36.012795          120    19341.018    21293.074   -29894.876   -498.20697   -2153.2169   -592.40309    72.182371    62.511768    36.012795    3579.7388   -311881.04 
     690    230.78407    162518.91    72.185371    72.185372    36.014292          120    18124.241    20829.237    -31489.96   -645.97317   -1869.7362   -789.35687    72.185371    62.514366    36.014292    2487.8395   -311892.27 
     700     228.2567    162539.96    72.188487    72.188488    36.015846          120    17378.659    19724.178   -33811.901   -520.66102    -2179.581   -858.81526    72.188487    62.517064    36.015846    1096.9787   -311900.16 
     710    226.69583    162560.66    72.191553    72.191553    36.017375          120    17052.416    19335.626   -34721.146   -548.20034   -2155.7351   -906.94371    72.191553    62.519719    36.017375    555.63189   -311909.99 
     720    221.70228    162580.55    72.194497    72.194497    36.018844          120    16968.399    19692.024   -36038.678   -411.95072    -1719.712   -1386.9109    72.194497    62.522269    36.018844    207.24851   -311911.96 
     730    218.17327    162599.44    72.197292    72.197293    36.020239          120    17166.628    19964.133   -35243.596    393.00238   -1844.1046   -1466.1995    72.197292     62.52469    36.020239    629.05501   -311917.21 
     740    217.92976    162617.69    72.199993    72.199993    36.021586          120    17679.886    20082.862   -34429.329    143.42346   -2110.8022   -1917.6922    72.199993    62.527028    36.021586    1111.1397   -311927.64 
     750    213.97423    162635.75    72.202666    72.202667     36.02292          120    17895.766    19492.523   -33257.792    -160.8156   -2404.5005   -1546.8603    72.202666    62.529344     36.02292    1376.8324   -311931.05 
     760     212.7782    162653.88    72.205349     72.20535    36.024259          120    18361.963    18991.844   -32662.088   -75.479158   -1428.0099   -871.65398    72.205349    62.531668    36.024259    1563.9062   -311939.48 
     770    210.38418    162672.25    72.208066    72.208067    36.025614          120    17836.675    19390.103   -32608.744    20.504396   -1308.8367   -1143.6343    72.208066     62.53402    36.025614    1539.3445   -311945.88 
     780     208.2876     162690.8    72.210812    72.210813    36.026984          120    17530.693    19135.852   -32929.236    320.05704   -1387.3598   -1049.0176    72.210812    62.536398    36.026984    1245.7694   -311952.11 
     790    207.79174    162709.27    72.213545    72.213545    36.028348          120    17200.105    19101.502   -34646.269    482.85691   -1345.2371   -1334.6044    72.213545    62.538765    36.028348    551.77953   -311960.89 
     800    202.65878    162727.15    72.216189     72.21619    36.029667          120    17133.797     19216.85   -36029.762    758.86405   -1409.6879   -1458.0121    72.216189    62.541055    36.029667     106.9617   -311960.57 
     810    200.42304    162744.08    72.218693    72.218694    36.030916          120    17516.678    18655.904   -36739.465    629.16115   -1002.0284   -1248.0809    72.218693    62.543223    36.030916   -188.96094   -311965.59 
     820    197.40381    162759.91    72.221034    72.221035    36.032084          120    17344.934    18370.772   -35827.099    497.92486   -1089.2695   -912.68547    72.221034    62.545251    36.032084   -37.130857   -311968.69 
     830    195.88183    162774.78    72.223235    72.223235    36.033182          120    17143.527     18007.27   -35072.941     370.8012   -1562.2114   -554.83508    72.223235    62.547156    36.033182    25.951962   -311973.73 
     840    194.96696     162788.8    72.225307    72.225308    36.034216          120    16606.527    17580.882   -34725.161    150.72711   -1442.5088   -1062.0354    72.225307    62.548951    36.034216   -179.25081   -311980.36 
     850    191.60868    162801.88    72.227242    72.227242    36.035181          120    16478.847    17577.025   -34807.995     368.1029   -526.68238   -1030.8259    72.227242    62.550627    36.035181   -250.70778   -311981.68 
     860    190.34827    162813.97     72.22903     72.22903    36.036073          120    16045.347    16935.469   -34858.745    618.73984   -217.35135   -977.62914     72.22903    62.552175    36.036073   -625.97638    -311986.5 
     870    187.73604    162824.89    72.230645    72.230645    36.036879          120     16222.45    17621.459   -34848.981      378.402   -311.13881   -1009.5661    72.230645    62.553574    36.036879   -335.02381   -311988.81 
     880     186.3221    162834.89    72.232123    72.232124    36.037617          120    16345.386    18482.347   -35560.593    147.14324   -822.86691   -811.06377    72.232123    62.554854    36.037617   -244.28682   -311993.02 
     890    186.28296    162844.06     72.23348    72.233481    36.038294          120    15787.997    18097.736   -36005.859    194.74368   -1150.2104   -1216.5593     72.23348    62.556029    36.038294   -706.70862   -311999.95 
     900    184.36049    162852.14    72.234674    72.234674    36.038889          120    15424.038    17770.893   -36339.513    113.03313     -1723.03   -1154.2126    72.234674    62.557063    36.038889    -1048.194   -312003.21 
     910    182.39647     162858.9    72.235674    72.235674    36.039388          120    15769.692     17593.02   -36264.865    633.43938   -1950.3229   -1088.1443    72.235674    62.557929    36.039388   -967.38449   -312005.82 
     920    181.82149    162864.48    72.236499      72.2365      36.0398          120    16599.939    17882.604   -36085.672    1177.3389   -2006.6927   -931.31616    72.236499    62.558644      36.0398   -534.37612   -312010.95 
     930    180.63634    162869.28    72.237208    72.237209    36.040154          120    16494.911    18137.348   -35563.806    975.15591   -1487.6066   -1235.9739    72.237208    62.559258    36.040154   -310.51566   -312014.99 
     940    178.60664    162873.56     72.23784    72.237841    36.040469          120    16235.606    17884.638   -34616.928    994.75169   -1302.3927   -1197.3069     72.23784    62.559806    36.040469   -165.56125   -312016.46 
     950    176.12813    162877.42    72.238412    72.238413    36.040754          120    15945.594    18228.805   -35370.235    619.54522   -1690.1079   -1328.3728    72.238412    62.560301    36.040754   -398.61201    -312017.1 
     960    175.97657    162880.78    72.238908    72.238909    36.041002          120    15812.742    18665.066     -35661.7   -16.516555   -1527.6353   -1126.5901    72.238908     62.56073    36.041002   -394.63054   -312021.63 
     970    176.76694    162883.59    72.239323    72.239324    36.041209          120    15872.509    18046.055   -36088.295    -136.0957   -1640.5737   -932.98209    72.239323     62.56109    36.041209    -723.2437   -312028.11 
     980    175.12167    162885.68    72.239632    72.239633    36.041363          120    16498.341    17960.489   -35667.673    388.68567   -1862.1779   -480.13713    72.239632    62.561357    36.041363   -402.94733   -312029.28 
     990    173.89086    162887.31    72.239874    72.239874    36.041483          120    16700.715    18344.841   -35114.322      942.563   -1636.1743   -1086.8696    72.239874    62.561566    36.041483    -22.92211      -312031 
    1000    171.29671    162888.84      72.2401      72.2401    36.041596          120    16896.209    18758.899   -34634.525    878.23446   -1518.0363   -1581.1232      72.2401    62.561762    36.041596    340.19439   -312030.07 
Loop time of 388.655 on 1 procs for 1000 steps with 14848 atoms

Performance: 0.222 ns/day, 107.960 hours/ns, 2.573 timesteps/s
100.0% CPU use with 1 MPI tasks x no OpenMP threads

MPI task timing breakdown:
Section |  min time  |  avg time  |  max time  |%varavg| %total
---------------------------------------------------------------
Pair    | 313.79     | 313.79     | 313.79     |   0.0 | 80.74
Bond    | 0.00065851 | 0.00065851 | 0.00065851 |   0.0 |  0.00
Kspace  | 14.674     | 14.674     | 14.674     |   0.0 |  3.78
Neigh   | 51.074     | 51.074     | 51.074     |   0.0 | 13.14
Comm    | 0.53578    | 0.53578    | 0.53578    |   0.0 |  0.14
Output  | 0.013766   | 0.013766   | 0.013766   |   0.0 |  0.00
Modify  | 8.3983     | 8.3983     | 8.3983     |   0.0 |  2.16
Other   |            | 0.168      |            |       |  0.04

Nlocal:    14848 ave 14848 max 14848 min
Histogram: 1 0 0 0 0 0 0 0 0 0
Nghost:    46891 ave 46891 max 46891 min
Histogram: 1 0 0 0 0 0 0 0 0 0
Neighs:    1.01032e+07 ave 1.01032e+07 max 1.01032e+07 min
Histogram: 1 0 0 0 0 0 0 0 0 0

Total # of neighbors = 10103193
Ave neighs/atom = 680.441
Ave special neighs/atom = 0
Neighbor list builds = 151
Dangerous builds = 0
PPPM initialization ...
  using 12-bit tables for long-range coulomb (../kspace.cpp:321)
  G vector (1/distance) = 0.202638
  grid = 36 50 24
  stencil order = 5
  estimated absolute RMS force accuracy = 0.000995557
  estimated relative force accuracy = 6.91376e-05
  using double precision FFTs
  3d grid and FFT values/proc = 65395 43200
Setting up Verlet run ...
  Unit style    : metal
  Current step  : 0
  Time step     : 0.001
Per MPI rank memory allocation (min/avg/max) = 152.6 | 152.6 | 152.6 Mbytes
Step Temp Volume Cella Cellb Cellc CellGamma Pxx Pyy Pzz Pxy Pxz Pyz Lx Ly Lz Press PotEng 
       0    171.29671    162888.84      72.2401      72.2401    36.041596          120    16908.759    18771.936   -34627.209    878.52964   -1517.6025   -1581.2507      72.2401    62.561762    36.041596    351.16215   -312029.89 
      10    170.57879    162890.55    72.240353    72.240353    36.041722          120     16974.29    18647.289   -34378.313    671.41843   -2073.1648   -1718.3716    72.240353    62.561981    36.041722    414.42222   -312032.54 
      20    169.42067    162892.51    72.240642    72.240642    36.041867          120    16291.639    18786.152   -34771.628   -53.482777   -2352.0539   -1351.5448    72.240642    62.562232    36.041867    102.05467   -312033.62 
      30    169.90326    162894.43    72.240926    72.240927    36.042009          120    15596.468     18217.11   -35218.767   -81.943003   -2229.1332   -1103.3445    72.240926    62.562478    36.042009   -468.39672   -312038.18 
      40    168.60106    162895.86    72.241138    72.241139    36.042114          120     15762.12    17576.763   -36184.891      453.512   -1918.0877   -1841.8713    72.241138    62.562661    36.042114   -948.66937    -312038.8 
      50    168.72281    162896.41    72.241219     72.24122    36.042155          120    15427.097    17334.153    -36593.62     841.8954   -2281.2595   -1598.3671    72.241219    62.562732    36.042155   -1277.4565   -312041.65 
      60    168.66755    162895.87    72.241139    72.241139    36.042115          120    15830.743    17521.448   -36966.314    1063.2984   -2094.2054    -1413.604    72.241139    62.562662    36.042115   -1204.7076   -312043.96 
      70    167.14358    162894.33    72.240912    72.240913    36.042001          120    16047.276    18000.373   -36202.064    1277.0588    -1527.071   -1034.2632    72.240912    62.562466    36.042001   -718.13851   -312042.81 
      80    167.46142    162892.22      72.2406    72.240601    36.041846          120    16435.865    18100.528   -35852.485    1091.7247   -1079.2017   -785.81722      72.2406    62.562196    36.041846   -438.69743   -312045.17 
      90    166.81482    162889.82    72.240245    72.240245    36.041669          120    16678.337    18093.549   -35813.891    750.41255   -1096.6573    -1043.165    72.240245    62.561888    36.041669   -347.33484   -312045.21 
     100    167.47677    162887.24    72.239863    72.239864    36.041478          120    16615.765     18596.86   -35444.978    947.44375   -1743.2721   -1821.7963    72.239863    62.561557    36.041478   -77.450999   -312047.74 
     110    167.60064    162884.73    72.239493    72.239493    36.041293          120    16344.254    19332.109   -34865.806    1186.4616   -2152.7392   -2394.8263    72.239493    62.561236    36.041293    270.18543   -312048.69 
     120    167.19861    162882.52    72.239166    72.239167    36.041131          120    16016.252    18924.097   -34824.604    1052.9297   -2212.5423   -2007.1202    72.239166    62.560954    36.041131    38.581309   -312048.49 
     130    166.64834    162880.48    72.238864    72.238865     36.04098          120    16211.482    18908.385   -34809.582    859.28181   -1942.7695   -1791.5507    72.238864    62.560692     36.04098    103.42845   -312047.61 
     140    167.05558    162878.62    72.238589    72.238589    36.040842          120    16367.114    19309.417   -35387.293    1029.9487   -1887.3737    -1474.936    72.238589    62.560453    36.040842    96.412779   -312048.74 
     150    167.45248    162876.92    72.238338    72.238339    36.040717          120    16458.575    19255.404   -35658.544    954.98575   -1690.7195   -685.69838    72.238338    62.560236    36.040717    18.478096   -312048.89 
     160    165.51579    162875.34    72.238104    72.238105    36.040601          120    16541.693    19197.494   -35534.107    822.43577   -1759.4963   -335.56565    72.238104    62.560034    36.040601    68.359985   -312044.27 
     170    167.31703    162873.88    72.237888    72.237888    36.040493          120    17038.269    18800.507   -35779.057     659.4071   -1498.5195   -667.78382    72.237888    62.559847    36.040493    19.906452   -312047.31 
     180    165.74197     162872.5    72.237685    72.237685    36.040391          120    17301.416     18610.81    -35987.43     191.7422   -1407.9374   -619.01647    72.237685    62.559671    36.040391   -25.067786   -312043.33 
     190    168.07795    162871.16    72.237487    72.237487    36.040293          120    17156.384     18120.36   -35602.314    145.89842   -1056.8499   -857.85277    72.237487    62.559499    36.040293   -108.52326   -312046.22 
     200    168.93464    162869.79    72.237283    72.237284    36.040191          120    16896.496    17742.599   -35120.999    372.59244   -1320.8754    -1360.712    72.237283    62.559323    36.040191   -160.63465   -312045.89 
     210    169.49348    162868.36    72.237072    72.237073    36.040086          120    17326.761    17991.917   -35027.341     540.1464   -1446.0326   -1598.0781    72.237072     62.55914    36.040086    97.112489   -312045.51 
     220    169.07444     162867.1    72.236886    72.236887    36.039993          120    18347.092    18054.515   -34775.381    390.73401   -809.55054   -1524.9678    72.236886    62.558979    36.039993    542.07538    -312042.7 
     230     171.2018    162866.33    72.236772    72.236772    36.039936          120    17526.051     18124.94   -34330.173    491.90128   -1203.2355   -1702.3801    72.236772     62.55888    36.039936    440.27288   -312044.19 
     240    172.01127    162865.97    72.236719     72.23672     36.03991          120     16821.14    18421.254   -34493.593    288.64404   -970.62795   -1847.5339    72.236719    62.558835     36.03991    249.60021   -312043.38 
     250    171.78094    162865.85    72.236701    72.236701      36.0399          120     17194.84    18593.328   -35466.285    577.65077   -569.30265   -1953.1053    72.236701    62.558819      36.0399    107.29433   -312040.78 
     260    172.46593    162865.85    72.236701    72.236701      36.0399          120    17158.831    19164.215   -35416.644    970.77491   -1129.9802   -1246.1038    72.236701    62.558819      36.0399    302.13391   -312039.24 
     270    173.91272    162866.09    72.236737    72.236738    36.039919          120    16944.904    19263.104    -35084.22    1073.3108    -1471.531   -1059.5743    72.236737     62.55885    36.039919    374.59585   -312039.53 
     280    173.45241    162866.64    72.236818    72.236819    36.039959          120    16888.368    18824.839   -34958.897    837.22681   -1528.3584   -578.83234    72.236818     62.55892    36.039959     251.4366   -312035.81 
     290    175.53853    162867.35    72.236923    72.236924    36.040011          120        16334    18443.331    -35341.87    299.76043   -1176.0305   -778.22879    72.236923    62.559011    36.040011   -188.17967   -312037.37 
     300    174.91632    162867.91    72.237005    72.237006    36.040052          120    16362.487    18392.189   -35459.828    50.842691   -1105.3589   -1513.7748    72.237005    62.559082    36.040052   -235.05061   -312033.21 
     310    175.46585    162868.26    72.237057    72.237058    36.040078          120    16241.048    18476.214   -34868.026     173.5716   -1144.9898    -1591.275    72.237057    62.559127    36.040078   -50.254505   -312031.78 
     320    176.47576    162868.54    72.237098    72.237099    36.040099          120    16026.809    18476.331   -34564.663    182.06114   -1120.4734   -1863.1993    72.237098    62.559163    36.040099   -20.507751   -312030.76 
     330    176.63467    162868.81    72.237139     72.23714    36.040119          120    15959.305    19064.508   -34286.233    429.38182   -963.36734   -1707.3876    72.237139    62.559198    36.040119    245.86025   -312028.22 
     340    178.13162    162869.23    72.237202    72.237202     36.04015          120    16316.055     18900.41   -35365.404    557.84404    -475.3678   -1702.0378    72.237202    62.559252     36.04015    -49.64623   -312028.41 
     350    179.26493    162869.59    72.237255    72.237255    36.040177          120    16903.317    18352.897   -36125.482    444.26872   -392.88762   -1321.4594    72.237255    62.559298    36.040177   -289.75592   -312028.43 
     360     178.7916    162869.71    72.237272    72.237273    36.040186          120    17426.959    17895.509   -35715.077    376.86075   -398.27635   -1800.5794    72.237272    62.559314    36.040186   -130.86984   -312025.13 
     370    180.84703    162869.78    72.237282    72.237282     36.04019          120    17889.408    18689.555   -34715.161    152.37845   -340.95482   -1930.6601    72.237282    62.559322     36.04019    621.26737   -312027.43 
     380     181.2096    162870.37    72.237369     72.23737    36.040234          120    17879.669     19215.91   -33429.568    427.68542    -609.7243   -1737.1812    72.237369    62.559398    36.040234    1222.0034   -312026.43 
     390    180.34275    162871.96    72.237605    72.237605    36.040351          120    17384.097     19504.52    -32976.19    334.03947   -655.13634   -1560.7181    72.237605    62.559601    36.040351    1304.1424   -312023.24 
     400    180.96422     162874.6    72.237994    72.237995    36.040546          120    17476.091     19311.59    -33361.24    681.37164   -514.40754   -1367.3393    72.237994    62.559939    36.040546     1142.147   -312023.17 
     410    181.18541     162878.1    72.238512    72.238513    36.040804          120    17469.565    19209.281   -34264.451    800.86412   -592.59148   -1820.8133    72.238512    62.560387    36.040804    804.79842   -312022.42 
     420    180.45656    162882.14     72.23911    72.239111    36.041103          120    17332.627    19262.553   -35410.768    921.67238   -1028.3068   -1622.0113     72.23911    62.560905    36.041103    394.80407   -312020.67 
     430    182.43884    162886.37    72.239735    72.239735    36.041414          120    17019.638    18913.974   -35548.259    929.38299   -1285.6445   -1582.0004    72.239735    62.561446    36.041414    128.45086    -312023.5 
     440    181.10022    162890.56    72.240354    72.240355    36.041723          120    16769.123    18968.618   -35241.681    640.17923    -935.3354    -1829.748    72.240354    62.561982    36.041723    165.35317   -312020.62 
     450    182.93011    162894.75    72.240973    72.240974    36.042032          120    17289.411    19286.965   -34791.139    616.17594   -1516.5352   -1527.5889    72.240973    62.562519    36.042032    595.07922   -312024.32 
     460    181.05511    162899.29    72.241645    72.241645    36.042367          120    17871.222     19525.79   -34075.412    525.29838   -1281.4435    -1801.778    72.241645      62.5631    36.042367    1107.1999   -312021.11 
     470    181.55184    162904.56    72.242424    72.242425    36.042756          120    17892.866    19256.413   -34164.639   -106.16595   -821.13551   -2128.8999    72.242424    62.563775    36.042756    994.87986   -312022.75 
     480    182.58854    162910.48    72.243298    72.243299    36.043192          120    17749.203    18851.359   -34143.816    294.18235   -1079.3817   -1985.6298    72.243298    62.564532    36.043192    818.91535    -312025.8 
     490    181.00308    162916.91    72.244249     72.24425    36.043667          120    17557.603    19229.812   -33695.016    373.20131   -1199.0705   -1491.2567    72.244249    62.565356    36.043667    1030.7998   -312023.21 
     500    180.75273    162923.93    72.245287    72.245288    36.044184          120    17144.766    19573.985   -34335.665    436.06447    -748.3136   -1963.9877    72.245287    62.566255    36.044184    794.36207   -312023.83 
     510    181.65597    162931.36    72.246385    72.246386    36.044732          120     17347.87    19599.265   -35506.164    289.73715   -961.09379   -2105.5818    72.246385    62.567206    36.044732    480.32355   -312026.99 
     520    181.45619    162938.92    72.247502    72.247503    36.045289          120    17339.008    19423.716   -35992.944    249.41522   -1214.6977   -2284.5796    72.247502    62.568173    36.045289    256.59347   -312028.32 
     530    180.74772     162946.4    72.248609    72.248609    36.045841          120    17402.856    19047.386   -35777.851     151.0836    -908.3967   -2074.6115    72.248609    62.569131    36.045841     224.1304   -312029.41 
     540    179.11727    162953.79      72.2497    72.249701    36.046386          120    17920.594    18773.962   -35951.829    308.34782   -1087.9325   -1968.0517      72.2497    62.570077    36.046386    247.57553   -312028.17 
     550    179.88817    162961.11    72.250783    72.250783    36.046926          120    17704.085    19072.949   -35409.898    592.99474   -1203.2643   -1563.0739    72.250783    62.571014    36.046926    455.71196   -312031.81 
     560    178.50778    162968.52    72.251877    72.251878    36.047472          120    17235.097     19072.13   -35229.647    418.28321    -1516.921   -1796.5662    72.251877    62.571962    36.047472    359.19327   -312031.81 
     570    178.71268    162975.93    72.252972    72.252972    36.048018          120    17036.532    18445.039   -35340.774    338.82723   -1267.2883    -2006.761    72.252972     62.57291    36.048018    46.932419   -312034.56 
     580    178.21947    162983.09    72.254031    72.254032    36.048547          120    17108.918    18081.932   -35482.715    807.57955   -1139.1971    -1704.537    72.254031    62.573827    36.048547   -97.288551   -312036.95 
     590    177.74067    162989.91    72.255038    72.255039    36.049049          120    17396.832    17986.347   -35817.784       1106.2   -992.29107   -1590.7804    72.255038    62.574699    36.049049   -144.86838   -312038.97 
     600    175.62134    162996.35    72.255989     72.25599    36.049524          120    17543.721    17949.307   -36167.641    1070.6469    -639.9022   -1128.6762    72.255989    62.575523    36.049524    -224.8708   -312037.67 
     610    175.78758     163002.3    72.256869     72.25687    36.049963          120     17081.18    17575.826   -36927.513    1155.8452   -835.21566   -1208.8005    72.256869    62.576285    36.049963   -756.83588   -312040.42 
     620    173.57567    163007.38    72.257619     72.25762    36.050337          120    16504.178    17385.142   -37368.242    774.41627   -1386.3805   -1028.7995    72.257619    62.576935    36.050337   -1159.6407   -312038.91 
     630     172.6654    163011.24     72.25819    72.258191    36.050622          120    15989.076    17005.197   -37520.174    1091.5277   -1578.0041   -703.84633     72.25819    62.577429    36.050622   -1508.6339    -312039.4 
     640    172.28662    163013.69    72.258552    72.258553    36.050802          120    15609.848    16904.035   -36307.236    1270.2629   -1794.0904   -946.73159    72.258552    62.577742    36.050802   -1264.4512   -312041.25 
     650    172.61149    163014.95    72.258737    72.258738    36.050895          120    15861.911    17224.275   -35992.042    902.06561   -1300.5679   -1514.1851    72.258737    62.577903    36.050895   -968.61879    -312044.1 
     660    172.64449    163015.33    72.258795    72.258795    36.050924          120    16332.334    17879.441   -35726.038    460.13189   -1369.5588   -2025.0011    72.258795    62.577953    36.050924   -504.75403   -312046.51 
     670    172.05608    163015.26    72.258783    72.258784    36.050918          120    16228.635    18047.671   -34910.558   -12.963193   -1598.9863   -2301.0476    72.258783    62.577943    36.050918   -211.41721   -312047.21 
     680    173.71143    163014.97     72.25874    72.258741    36.050896          120    16010.018    18315.147   -35279.764   -20.938705   -1442.7298   -1677.1687     72.25874    62.577906    36.050896   -318.19958   -312052.92 
     690     171.8866    163014.42    72.258659     72.25866    36.050856          120    15937.501    18421.262   -35525.614    -126.7039   -1313.7576   -1134.7759    72.258659    62.577835    36.050856   -388.95022   -312051.25 
     700    171.43033    163013.56    72.258533    72.258533    36.050793          120    16055.438    18248.278   -35369.631    57.624814   -1400.7191   -1629.4594    72.258533    62.577725    36.050793   -355.30503   -312052.53 
     710    171.47483    163012.43    72.258366    72.258366    36.050709          120    16512.733    18286.773   -35633.536    310.12938   -2096.4106   -1417.4576    72.258366    62.577581    36.050709   -278.01007   -312054.67 
     720    170.53468    163011.11    72.258171    72.258171    36.050612          120    16801.127    18512.214    -35723.41    100.98614    -2283.721   -989.54489    72.258171    62.577412    36.050612   -136.68961   -312054.32 
     730    169.87884    163009.69    72.257962    72.257962    36.050508          120    16485.643    18700.679   -35968.279    268.01716   -1937.6155   -1633.5193    72.257962    62.577231    36.050508   -260.65224   -312054.27 
     740    168.01775     163008.1    72.257726    72.257726     36.05039          120    16229.004    18416.154   -36048.409    406.12933   -1554.9268   -1599.8509    72.257726    62.577027     36.05039   -467.75023   -312051.09 
     750    167.97856    163006.18    72.257442    72.257442    36.050248          120    15953.488    18555.424    -35733.05    739.52152   -832.40214   -1300.3456    72.257442    62.576781    36.050248   -408.04591   -312052.08 
     760    167.97416    163003.97    72.257116    72.257117    36.050086          120    16333.514    18349.561   -35301.983    643.24949   -805.09404   -1782.2612    72.257116    62.576499    36.050086   -206.30269   -312052.29 
     770    170.05927    163001.64    72.256771    72.256772    36.049914          120    16780.875    17770.133   -35351.821    614.12494   -1376.3655   -1396.9348    72.256771      62.5762    36.049914   -266.93772   -312056.49 
     780    167.76573    162999.17    72.256406    72.256406    36.049732          120    16957.309    17772.495   -35934.843    794.70892   -2055.4199   -1551.1701    72.256406    62.575884    36.049732   -401.67981   -312051.87 
     790    169.12688    162996.39    72.255996    72.255996    36.049527          120    16660.234    17474.851   -36559.954    733.04757   -1843.7186   -1663.3798    72.255996    62.575529    36.049527   -808.28965   -312054.88 
     800    169.59151    162993.02    72.255497    72.255498    36.049278          120    16196.926    17378.125   -36675.667    828.87864   -1278.2869   -1421.3506    72.255497    62.575097    36.049278   -1033.5386   -312055.42 
     810    168.82907     162988.9    72.254889     72.25489    36.048975          120    16241.772    17652.065   -36157.513    1034.8576   -1776.3374   -1120.2881    72.254889     62.57457    36.048975   -754.55888    -312053.7 
     820    169.98764    162984.31     72.25421    72.254211    36.048636          120     16656.59    18291.599   -35623.964     1145.784   -1653.6158   -936.67628     72.25421    62.573982    36.048636   -225.25827      -312055 
     830    171.50862    162979.65    72.253522    72.253523    36.048293          120    16761.033    18742.099   -35398.538    882.77271   -1733.9466   -1252.6367    72.253522    62.573386    36.048293    34.864652    -312056.9 
     840    170.44013     162975.2    72.252865    72.252865    36.047965          120    17225.855    18730.667   -34778.682     688.8187    -1734.334   -1919.1689    72.252865    62.572817    36.047965    392.61317   -312053.91 
     850    170.72829     162971.2    72.252273    72.252273    36.047669          120    17463.753     18567.82   -35650.358    712.96696   -1537.7912   -2008.8029    72.252273    62.572304    36.047669    127.07145   -312053.18 
     860     171.6128    162967.43    72.251717    72.251717    36.047392          120    17031.718    18420.983   -36206.185     726.2418   -1119.7219   -2056.9329    72.251717    62.571823    36.047392   -251.16122   -312053.89 
     870    171.24474    162963.59    72.251149     72.25115    36.047109          120     16763.32    18025.518   -36330.071    831.39227   -1183.6422   -2183.5776    72.251149    62.571331    36.047109   -513.74428   -312051.14 
     880    172.56636    162959.49    72.250543    72.250544    36.046807          120    17468.532      18068.8   -35984.422    1089.7394    -1818.985   -2377.1156    72.250543    62.570806    36.046807   -149.03024   -312051.96 
     890     173.1276    162955.44    72.249944    72.249945    36.046508          120    18113.497    18970.779   -35370.078     1363.138   -1731.6659   -1831.8828    72.249944    62.570288    36.046508    571.39946   -312051.26 
     900    172.57255    162951.97    72.249431    72.249432    36.046252          120    18064.418     19576.35   -35796.061    1230.4171   -1538.2152   -1163.8131    72.249431    62.569843    36.046252    614.90229   -312048.06 
     910    173.00218    162949.13    72.249011    72.249011    36.046042          120    17582.594    19370.097   -35795.551    1096.3399   -1358.8352   -1282.6088    72.249011    62.569479    36.046042    385.71328   -312047.22 
     920    173.95437    162946.73    72.248656    72.248657    36.045865          120    17621.363    18790.391   -35958.693    891.73657   -1174.2266   -918.25445    72.248656    62.569172    36.045865    151.02015   -312047.45 
     930    172.61958    162944.54    72.248333    72.248333    36.045704          120    17370.297    18621.404   -36346.774    666.96547   -697.27042   -885.24082    72.248333    62.568892    36.045704   -118.35782   -312042.35 
     940    173.96455    162942.38    72.248013    72.248014    36.045544          120    17825.994    18685.144   -35588.774    245.19422   -790.01512   -993.25451    72.248013    62.568616    36.045544    307.45471   -312042.98 
     950    176.51042    162940.51    72.247738    72.247738    36.045407          120    17674.592    18612.589   -35426.101    378.04263   -255.86463   -1384.7909    72.247738    62.568377    36.045407    287.02658   -312045.56 
     960     175.7114    162938.96    72.247508    72.247509    36.045292          120    17305.378    18465.621   -34984.032    456.40402   -293.08022   -1736.4765    72.247508    62.568178    36.045292    262.32239   -312041.89 
     970    176.49571    162937.65    72.247315    72.247316    36.045196          120     16762.56    18558.308   -35658.409    636.08611   -707.19905   -1920.9027    72.247315    62.568011    36.045196   -112.51339   -312041.71 
     980    176.07057    162936.33     72.24712     72.24712    36.045099          120    16671.825    18858.739   -36016.608    578.89088   -760.36066   -1454.3254     72.24712    62.567842    36.045099   -162.01448   -312038.96 
     990    179.19572    162934.91     72.24691    72.246911    36.044994          120     16877.15    18482.657   -35885.842    575.59373   -1209.0147   -866.46053     72.24691     62.56766    36.044994   -175.34507   -312043.01 
    1000    178.74041    162933.39    72.246685    72.246685    36.044882          120    16573.238    18486.814   -35613.679    783.18596    -803.7483   -714.59813    72.246685    62.567465    36.044882   -184.54228   -312040.65 
    1010    178.47611    162931.78    72.246448    72.246448    36.044763          120    16778.968    18907.092   -35406.768    717.93567   -879.68292    114.01703    72.246448     62.56726    36.044763    93.097462   -312038.91 
    1020    179.34542    162930.29    72.246227    72.246227    36.044653          120     16978.71    18978.112   -35644.407    527.32528   -863.77061   -338.79213    72.246227    62.567068    36.044653    104.13816   -312039.46 
    1030    177.80435    162928.94    72.246027    72.246028    36.044554          120    17058.356    18785.137   -35255.183    602.37328   -1045.4237    -477.8161    72.246027    62.566896    36.044554    196.10343   -312035.46 
    1040    179.17312     162927.8     72.24586     72.24586     36.04447          120    17120.033    18928.334   -35090.284    576.43707   -920.11898   -431.03126     72.24586     62.56675     36.04447    319.36097   -312036.81 
    1050    180.57261    162927.02    72.245743    72.245744    36.044412          120    17613.336    18839.466   -34364.727    1062.5258   -927.49798   -600.01777    72.245743    62.566649    36.044412      696.025   -312038.56 
    1060    180.10131    162926.83    72.245715    72.245716    36.044398          120    18065.124    18819.382   -34755.823    1225.3558   -925.49846   -573.72335    72.245715    62.566625    36.044398    709.56095   -312036.67 
    1070    181.16873    162927.24    72.245776    72.245776    36.044428          120    17289.837    18960.412   -34766.675    1234.2197   -1083.8957   -1194.2619    72.245776    62.566678    36.044428    494.52482   -312038.39 
    1080    180.40372    162928.06    72.245898    72.245898    36.044489          120     17090.08    18580.039   -34993.895    1183.4429   -778.06667   -1383.4306    72.245898    62.566783    36.044489    225.40816   -312037.02 
    1090    181.27766    162929.06    72.246046    72.246046    36.044563          120    17376.772    18221.211   -35763.494    845.63826   -700.00699   -985.54806    72.246046    62.566912    36.044563   -55.170441   -312038.03 
    1100    179.25482    162930.04    72.246189     72.24619    36.044634          120    17865.337    18741.633   -35731.628     859.8096   -1009.1206   -326.80919    72.246189    62.567036    36.044634    291.78072    -312034.3 
    1110    180.20869    162931.22    72.246365    72.246365    36.044722          120      17919.7    18814.015   -34826.188    1085.5538     -1165.61   -369.71944    72.246365    62.567188    36.044722    635.84247   -312036.47 
    1120    180.09413    162932.91    72.246614    72.246614    36.044846          120    18007.388    18712.419   -34701.897    1073.7357   -1262.1372   -768.83158    72.246614    62.567403    36.044846    672.63665   -312036.57 
    1130    179.01728    162935.11     72.24694     72.24694    36.045009          120    17816.686     18851.28   -35161.811    1084.1119   -831.01738   -824.34227     72.24694    62.567686    36.045009    502.05163   -312035.14 
    1140    179.44518    162937.67    72.247318    72.247319    36.045198          120    16973.066    19011.096   -35268.853    919.72462   -691.88898   -1184.9304    72.247318    62.568013    36.045198    238.43615   -312036.68 
    1150    179.44614    162940.36    72.247716    72.247716    36.045396          120    17209.411    18252.298   -35204.705    497.79066   -1159.5965   -1127.7976    72.247716    62.568358    36.045396    85.668102   -312037.84 
    1160     179.5564    162943.05    72.248113    72.248113    36.045594          120    17252.167    18387.147   -35444.195    459.22538    -1537.471   -1237.7902    72.248113    62.568702    36.045594    65.039388   -312039.36 
    1170    179.52394    162945.72    72.248507    72.248508    36.045791          120    17341.652    18916.748   -35681.542    736.41979   -1380.9346   -1251.4679    72.248507    62.569043    36.045791     192.2857   -312040.48 
    1180    179.05274    162948.47    72.248913    72.248914    36.045993          120    17306.587    18744.425   -35440.436    1262.1124   -904.91021   -1253.8311    72.248913    62.569395    36.045993     203.5253    -312041.5 
    1190    178.81092     162951.3    72.249332    72.249332    36.046202          120    16998.534    18406.992   -35173.792     1611.836   -801.55654   -868.21695    72.249332    62.569757    36.046202    77.244586   -312042.69 
    1200    178.30542    162954.11    72.249748    72.249749     36.04641          120     16968.06    18714.635   -35494.968    1667.9778   -709.50775   -294.58641    72.249748    62.570118     36.04641    62.575441   -312043.11 
    1210     177.9866    162956.89    72.250158    72.250159    36.046614          120    16722.294     19008.58   -35939.917    1464.5399   -967.78592   -71.947937    72.250158    62.570473    36.046614   -69.680691   -312044.51 
    1220    176.42295    162959.47     72.25054     72.25054    36.046805          120    16522.945    18157.263   -36255.635     1033.029    -1362.476   -545.11207     72.25054    62.570804    36.046805   -525.14241   -312043.94 
    1230    176.00415    162961.55    72.250847    72.250848    36.046958          120    16583.131    18112.519   -36300.311    847.73526   -891.62516   -835.21098    72.250847     62.57107    36.046958   -534.88726   -312045.07 
    1240    176.67394     162963.1    72.251076    72.251077    36.047073          120    16737.207    18163.389   -35829.109    800.61986   -1048.8791   -849.94687    72.251076    62.571268    36.047073   -309.50403   -312048.63 
    1250    174.39756    162964.36    72.251263    72.251263    36.047166          120    17406.064     18785.11   -35219.148     1264.763   -1481.8237   -1235.0129    72.251263    62.571429    36.047166    324.00859   -312046.05 
    1260    174.50011    162965.84    72.251481    72.251482    36.047275          120    17695.393    18985.517   -34454.116    2002.9765   -1243.9388   -1352.3644    72.251481    62.571619    36.047275    742.26489    -312048.2 
    1270    173.77135     162967.9    72.251785    72.251786    36.047426          120    17537.629    19404.384   -34451.207    1668.3592   -1231.8742   -1288.1988    72.251785    62.571882    36.047426    830.26855   -312048.73 
    1280    172.33746     162970.6    72.252185    72.252186    36.047626          120    17490.199    19821.143    -34776.57    1137.4871   -1373.6873   -899.94932    72.252185    62.572228    36.047626    844.92379   -312048.37 
    1290    172.72377    162973.93    72.252676    72.252677    36.047871          120    17353.046    19765.899   -35697.408     844.3417   -1100.9929   -929.13369    72.252676    62.572654    36.047871    473.84573   -312050.74 
    1300    173.25022    162977.56    72.253213    72.253213    36.048139          120    17355.064    19107.631   -36368.172     620.2954    -642.8427   -850.88348    72.253213    62.573118    36.048139    31.507629    -312053.5 
    1310    172.10638    162981.18    72.253748    72.253748    36.048405          120    18002.079    18701.935   -35761.214    920.16497   -957.50034   -468.98611    72.253748    62.573582    36.048405    314.26687   -312052.59 
    1320    170.76257    162984.94    72.254304    72.254305    36.048683          120    17862.113    19239.363     -35668.1    793.81646   -1441.6294   -1036.6494    72.254304    62.574063    36.048683     477.7919    -312051.9 
    1330    171.34839    162988.98    72.254901    72.254902    36.048981          120    16879.857     19512.89   -35297.482     555.4353   -1476.8426   -1227.8833    72.254901    62.574581    36.048981    365.08848   -312054.67 
    1340    173.20284    162993.17    72.255519     72.25552    36.049289          120    16086.124    19074.203   -35900.995    402.87429   -1171.0224   -912.04627    72.255519    62.575116    36.049289   -246.88937    -312059.1 
    1350    172.80071    162997.09    72.256099    72.256099    36.049578          120     15926.71    19255.389    -35146.32    192.99909   -1146.7247   -794.03732    72.256099    62.575618    36.049578    11.926139   -312059.75 
    1360     169.9418    163000.89    72.256661    72.256661    36.049859          120    16200.404    18572.885   -34444.887     299.2524   -1490.0169    -1249.588    72.256661    62.576104    36.049859    109.46737   -312054.95 
    1370     170.3525    163004.62    72.257211    72.257212    36.050133          120    16235.859    17595.162    -35002.75     434.5637    -1358.798   -1377.2518    72.257211    62.576581    36.050133   -390.57601   -312056.28 
    1380    170.97696    163007.92      72.2577    72.257701    36.050377          120    16768.427    17062.197   -35067.871     515.5748   -987.67154   -564.38988      72.2577    62.577005    36.050377   -412.41558   -312058.21 
    1390    170.21147    163010.74    72.258116    72.258116    36.050585          120    16245.391    17187.032   -35714.617    471.20149   -863.72699   -664.82882    72.258116    62.577365    36.050585   -760.73122   -312057.93 
    1400    170.59059    163012.82    72.258424    72.258424    36.050738          120    15642.813    17392.509   -35619.243     695.7189    -1087.857   -759.47944    72.258424    62.577631    36.050738   -861.30688   -312059.33 
    1410    171.01865    163014.11    72.258614    72.258614    36.050833          120    16056.518    17308.059   -35188.953    691.76994   -1679.0049   -1204.8187    72.258614    62.577796    36.050833   -608.12501   -312060.39 
    1420    169.39401    163014.77    72.258712    72.258712    36.050882          120      15964.1    17298.422   -35706.176    828.76035   -1487.4812   -1298.6648    72.258712    62.577881    36.050882   -814.55148   -312057.29 
    1430    169.48133    163014.71    72.258702    72.258703    36.050877          120    15967.662    17061.786   -35933.195     1162.198   -1321.6726   -976.12814    72.258702    62.577873    36.050877   -967.91591   -312057.22 
    1440    170.70956    163013.83    72.258572    72.258573    36.050812          120    16133.445    17357.285   -35834.899    990.17614   -1458.7028   -970.45898    72.258572     62.57776    36.050812   -781.38969   -312059.01 
    1450    170.55211     163012.3    72.258346    72.258347      36.0507          120    16280.002    17522.144   -35388.926     1121.073   -1508.9426   -848.68784    72.258346    62.577564      36.0507   -528.92649   -312057.73 
    1460    170.48324    163010.35    72.258059    72.258059    36.050556          120    16287.358    18124.542   -35469.606    1298.6689    -1092.925   -741.75929    72.258059    62.577315    36.050556   -352.56875    -312056.5 
    1470    171.19789    163008.15    72.257733    72.257734    36.050394          120    16161.438    18560.695    -35570.76    1092.7902   -894.60575   -765.43336    72.257733    62.577033    36.050394   -282.87559   -312057.14 
    1480    170.62143    163005.73    72.257376    72.257377    36.050216          120    16223.868    18418.418   -36290.484    811.09043   -986.73055   -667.35813    72.257376    62.576724    36.050216   -549.39912   -312055.38 
    1490    172.60449    163002.92     72.25696     72.25696    36.050008          120    15655.553    18048.347    -36095.41    387.53176    -839.6933   -615.32574     72.25696    62.576363    36.050008   -797.17001   -312058.03 
    1500    171.05489    162999.57    72.256465    72.256465    36.049761          120    16423.967    18385.066   -35185.174    519.91711   -540.89616   -594.82342    72.256465    62.575935    36.049761   -125.38002   -312053.55 
    1510    172.45592     162996.2    72.255967    72.255968    36.049513          120    17349.161    18918.778   -34708.252    898.02628   -402.28575   -224.36269    72.255967    62.575504    36.049513    519.89596   -312054.98 
    1520    172.99254    162993.36    72.255547    72.255548    36.049303          120    17335.219    19462.705   -34520.436    856.26765   -1001.2911   -615.41619    72.255547     62.57514    36.049303    759.16266   -312054.29 
    1530    173.83238    162991.23    72.255233    72.255233    36.049146          120    16840.214    19944.794   -34953.228     1066.348   -1121.7593      -1154.9    72.255233    62.574868    36.049146    610.59322   -312054.57 
    1540    174.64854    162989.73    72.255011    72.255011    36.049036          120    17130.834    19651.371   -34830.379    1124.0753   -1490.5257   -1084.7034    72.255011    62.574676    36.049036    650.60893   -312054.48 
    1550    174.95718     162988.8    72.254874    72.254874    36.048967          120    17194.571    19086.318   -35788.494    1080.7213   -1318.1084   -973.11617    72.254874    62.574557    36.048967    164.13161   -312053.35 
    1560    173.64802    162988.03     72.25476    72.254761    36.048911          120    17037.321    18274.031   -36719.484    1205.5622   -1448.5697   -1046.0553     72.25476    62.574459    36.048911    -469.3774   -312048.94 
    1570    175.46885    162986.87    72.254589    72.254589    36.048825          120    16602.986    17612.699   -37323.412     1079.613   -1257.2953   -1072.3256    72.254589     62.57431    36.048825   -1035.9092   -312050.81 
    1580    175.98346    162984.91    72.254299      72.2543    36.048681          120    16899.886    17646.186   -37007.781    1128.2036   -828.00119   -1130.7447    72.254299    62.574059    36.048681    -820.5698   -312050.16 
    1590    176.98991     162982.3    72.253914    72.253915    36.048488          120    17174.374    17821.078   -36050.907    1335.7931   -1044.4529   -905.86189    72.253914    62.573726    36.048488   -351.81843    -312050.2 
    1600    175.72539    162979.47    72.253495    72.253495    36.048279          120    17084.972    17933.316   -34965.884    1426.1646   -1119.6347   -516.42037    72.253495    62.573363    36.048279    17.468095   -312046.62 
    1610    175.52763    162976.71    72.253087    72.253088    36.048076          120     17364.08     17843.42   -34849.527    1398.2758   -1145.4325   -706.64169    72.253087     62.57301    36.048076    119.32411   -312044.76 
    1620    177.76791    162974.12    72.252704    72.252705    36.047885          120    17184.707    18026.547   -35351.245     1258.597   -985.35661   -1066.3184    72.252704    62.572678    36.047885   -46.663658   -312047.84 
    1630    175.42531    162971.54    72.252324    72.252324    36.047695          120     16622.08    17978.284   -35597.373    1322.3217   -916.10905   -1018.0448    72.252324    62.572348    36.047695   -332.33633   -312041.72 
    1640    178.67172    162968.76    72.251913    72.251914     36.04749          120    16658.109    17853.344   -35451.609    1190.3945   -844.14052   -910.98338    72.251913    62.571993     36.04749   -313.38527   -312046.59 
    1650    178.49883    162965.84    72.251482    72.251482    36.047275          120    16776.346    18737.441   -34575.385    921.12978   -1292.7097   -1167.8308    72.251482    62.571619    36.047275    312.80076   -312044.83 
    1660    178.39439    162963.27    72.251101    72.251102    36.047085          120    17322.139    19532.029   -34218.046     826.7215   -1624.0489   -1283.4663    72.251101     62.57129    36.047085    878.70738   -312043.55 
    1670    178.82493    162961.52    72.250843    72.250844    36.046956          120    17843.141    19825.358   -33881.253     971.6033   -1922.8538   -1615.5319    72.250843    62.571066    36.046956    1262.4155   -312043.44 
    1680    179.36422    162960.88    72.250749    72.250749    36.046909          120    17946.808    19325.513   -33964.541    971.92332    -1526.127   -1586.8445    72.250749    62.570984    36.046909    1102.5931   -312043.71 
    1690    178.44715    162961.24    72.250802    72.250802    36.046936          120    17846.462    19251.513   -34268.639    1100.5673   -1089.2997   -968.59573    72.250802     62.57103    36.046936    943.11222   -312041.82 
    1700    179.98279    162962.43    72.250977    72.250978    36.047023          120    17642.368    19642.597   -34530.403    960.58341   -1439.6423   -1114.7576    72.250977    62.571182    36.047023    918.18707   -312044.47 
    1710    178.31901     162964.4    72.251268    72.251269    36.047168          120    17621.622    19627.072   -34316.786     1183.883   -1056.6213    -1916.905    72.251268    62.571434    36.047168    977.30247   -312040.93 
    1720    178.30064    162967.16    72.251677    72.251677    36.047372          120    17881.855    19590.147    -34373.41    1321.4185   -1259.1302   -1845.2822    72.251677    62.571788    36.047372    1032.8639   -312040.44 
    1730    179.95779     162970.7    72.252199    72.252199    36.047633          120    17983.097    18428.364    -34478.29    1345.9956   -1505.8188   -1661.8812    72.252199     62.57224    36.047633    644.39048    -312043.8 
    1740    180.39608    162974.68    72.252788    72.252788    36.047926          120    17864.838    17577.461     -34902.6    1289.9724   -1405.4681   -1032.0353    72.252788     62.57275    36.047926    179.89944    -312044.8 
    1750     181.4234    162978.75    72.253389     72.25339    36.048227          120    18108.757    17635.272   -35093.182     1041.643   -1409.4082   -1298.3562    72.253389    62.573271    36.048227    216.94912   -312047.52 
    1760    180.35877    162982.91    72.254004    72.254004    36.048533          120     17855.97    17911.584   -34585.258    1110.3593   -1655.8347   -1835.1475    72.254004    62.573804    36.048533    394.09866   -312045.79 
    1770    179.07093    162987.26    72.254646    72.254647    36.048854          120    17306.411    18037.107   -34803.172    914.34837   -1083.7276   -1746.1917    72.254646     62.57436    36.048854    180.11544   -312044.15 
    1780    178.33034    162991.62    72.255291    72.255291    36.049175          120     16891.08    18100.544   -35528.667    1030.8753   -830.05979   -1687.5249    72.255291    62.574918    36.049175   -179.01403   -312043.76 
    1790    177.70669    162995.74      72.2559    72.255901    36.049479          120    17250.415    18224.653   -35747.593    1123.6709   -1112.1814   -1641.0373      72.2559    62.575446    36.049479   -90.841908   -312043.68 
    1800    178.80529    162999.72    72.256488    72.256488    36.049772          120    17346.562     19090.34   -34687.286    912.15882   -1507.3922   -1846.9178    72.256488    62.575955    36.049772    583.20563   -312047.39 
    1810    177.02024    163004.03    72.257125    72.257125     36.05009          120    17305.944    19216.552   -34747.658    890.21906   -2138.0128   -1279.4913    72.257125    62.576506     36.05009    591.61267   -312045.29 
    1820    177.82418    163008.73    72.257819    72.257819    36.050436          120    17635.654    18589.158   -34887.672    951.45652    -1950.885   -756.35953    72.257819    62.577107    36.050436    445.71338   -312047.85 
    1830    176.35922    163013.67    72.258548    72.258549    36.050801          120    17668.899    18948.009   -35510.887    1009.5494   -1508.7219   -739.82292    72.258548    62.577739    36.050801    368.67359   -312046.46 
    1840    175.69252     163018.8    72.259307    72.259308    36.051179          120    17807.976    19318.414   -35909.218    726.00697   -1416.3591   -966.34212    72.259307    62.578397    36.051179    405.72395   -312046.78 
    1850    175.86716    163024.12    72.260094    72.260094    36.051571          120     17446.46    18928.468    -36239.01    1137.9681   -1499.7862   -1175.9307    72.260094    62.579077    36.051571    45.305895   -312048.74 
    1860    176.01396    163029.38    72.260871    72.260871    36.051959          120    17252.459    18764.997   -35866.742    1224.4106   -1611.2685   -1272.2896    72.260871     62.57975    36.051959    50.237911   -312050.69 
    1870    175.95873    163034.52    72.261629     72.26163    36.052338          120    16597.457     18747.07   -35991.859    860.70065   -1559.2626   -1480.4466    72.261629    62.580407    36.052338   -215.77743   -312052.25 
    1880    173.96169    163039.31    72.262338    72.262338    36.052691          120    17029.969    18279.327   -36757.854    916.87585   -1015.5155   -1152.0802    72.262338    62.581021    36.052691   -482.85257   -312049.81 
    1890    175.61731    163043.57    72.262967    72.262967    36.053005          120    16970.942    18326.496   -36471.311    936.48993   -837.71128   -1414.8249    72.262967    62.581565    36.053005   -391.29088   -312054.73 
    1900    174.38271    163047.33    72.263522    72.263522    36.053282          120    16490.351    18234.384   -36727.825    704.46318   -1077.8584    -1446.345    72.263522    62.582046    36.053282   -667.69635   -312053.59 
    1910    174.51475    163050.43    72.263979     72.26398     36.05351          120    16652.487    18307.225   -36629.187    666.96814    -1104.652   -1321.4511    72.263979    62.582443     36.05351   -556.49141   -312055.67 
    1920    172.74167    163052.96    72.264353    72.264354    36.053697          120    16676.714    18819.575   -36178.023    654.80395   -1477.9791   -816.84214    72.264353    62.582767    36.053697   -227.24463   -312053.79 
    1930    173.56519    163055.23    72.264689    72.264689    36.053864          120        17348    18924.826   -35504.628    446.04667    -1733.785   -1218.4862    72.264689    62.583057    36.053864    256.06584   -312057.03 
    1940    174.05914    163057.63    72.265044    72.265045    36.054041          120    17781.187     18693.84   -35192.627    486.27256   -1384.1532   -1265.3516    72.265044    62.583365    36.054041    427.46669   -312059.17 
    1950    172.81992     163060.3    72.265438    72.265439    36.054238          120    17366.387    18302.108   -35483.221    484.66292   -1074.5895   -1022.7098    72.265438    62.583706    36.054238    61.757845   -312057.62 
    1960     172.3303    163062.96    72.265831    72.265832    36.054434          120    17084.375     18327.97   -35914.898    722.08702   -1277.1725   -971.41352    72.265831    62.584046    36.054434   -167.51768   -312057.89 
    1970    172.32273    163065.37    72.266187    72.266188    36.054612          120    16771.129    17793.107   -36134.333    499.39555   -1385.2923   -930.84356    72.266187    62.584355    36.054612   -523.36592    -312059.4 
    1980    172.26327    163067.31    72.266473    72.266474    36.054754          120    16872.941    18058.801   -36055.553    550.23708   -1695.1427   -801.21567    72.266473    62.584603    36.054754   -374.60355    -312060.4 
    1990    169.88447    163068.88    72.266705    72.266706     36.05487          120    17064.771    18265.954   -35663.236    440.97535   -1530.2825   -780.77266    72.266705    62.584803     36.05487   -110.83698   -312056.57 
    2000    171.10033    163070.26    72.266909     72.26691    36.054972          120     16590.94    18140.354   -35894.234     499.7577   -1353.1691   -1293.4152    72.266909     62.58498    36.054972   -387.64682   -312059.95 
    2010    170.59065    163071.28     72.26706    72.267061    36.055047          120      16279.3    18156.556   -36273.551    763.17605     -1458.77   -898.50881     72.26706     62.58511    36.055047   -612.56532   -312059.88 
    2020    170.64947    163071.76    72.267132    72.267132    36.055083          120    16156.359    18238.555   -35655.006    1024.2154   -1546.0632   -1135.5823    72.267132    62.585173    36.055083   -420.03077   -312060.53 
    2030    171.35637    163071.83    72.267141    72.267142    36.055088          120      16073.9    17719.471   -35610.817    742.79065   -2118.3014   -960.84838    72.267141    62.585181    36.055088   -605.81555   -312062.08 
    2040    170.37349     163071.4    72.267078    72.267079    36.055056          120    16635.128    17531.016   -35632.212    557.20838   -1962.2103    -994.2032    72.267078    62.585126    36.055056   -488.68946   -312060.71 
    2050    170.09735    163070.57    72.266955    72.266955    36.054995          120    16805.273    18081.948   -35814.231    286.52662   -1386.6499   -814.01037    72.266955    62.585019    36.054995   -309.00306   -312059.86 
    2060    172.33306    163069.45     72.26679    72.266791    36.054912          120    16715.776     17862.66   -35557.522    537.90262   -1792.5288   -846.08707     72.26679    62.584877    36.054912   -326.36214      -312064 
    2070    170.68973    163068.12    72.266593    72.266593    36.054814          120    16851.764    18074.595   -35088.553    1024.2036   -1735.3454    -725.2712    72.266593    62.584706    36.054814   -54.064733   -312060.96 
    2080     170.9424    163066.72    72.266386    72.266387    36.054711          120    16269.294    18341.369   -35605.551    916.19815     -1361.16   -892.60359    72.266386    62.584527    36.054711   -331.62929   -312060.47 
    2090    171.37117    163065.08    72.266145    72.266145     36.05459          120     16047.81     18037.12   -35491.437    973.00831   -1068.8844   -1482.2698    72.266145    62.584318     36.05459   -468.83584   -312060.29 
    2100    171.77103    163063.04    72.265843    72.265844     36.05444          120    15773.085     17774.96   -36427.496    996.65784    -1304.307   -1510.0928    72.265843    62.584057     36.05444   -959.81684   -312060.67 
    2110    170.93962    163060.24    72.265429    72.265429    36.054233          120    15957.585    17136.956    -36631.78    1344.2693   -1665.6878   -1570.3173    72.265429    62.583698    36.054233   -1179.0797   -312058.34 
    2120    172.75837     163056.5    72.264876    72.264877    36.053958          120    15851.011    17708.263   -36468.218    1302.9944   -1777.7919   -1218.3374    72.264876    62.583219    36.053958   -969.64768   -312060.91 
    2130    173.09932    163052.01    72.264214    72.264214    36.053627          120    16234.832    17922.655   -36095.924    1570.8891   -1909.1558   -1008.7493    72.264214    62.582646    36.053627   -646.14568   -312060.37 
    2140    171.88629    163047.07    72.263484    72.263485    36.053263          120    16821.107    17960.694   -35616.392    1434.2511   -1526.9831   -945.78286    72.263484    62.582014    36.053263   -278.19684   -312056.96 
    2150    172.46578    163042.01    72.262736    72.262736     36.05289          120    17122.845    18516.521   -35555.487    1310.9647   -1652.6783    -768.9924    72.262736    62.581366     36.05289    27.959829    -312056.9 
    2160    173.70286    163037.11    72.262012    72.262013    36.052529          120    17393.525    18327.691   -34702.814    1505.6306    -1623.694   -581.92636    72.262012    62.580739    36.052529    339.46736      -312058 
    2170    173.64135    163032.62    72.261348    72.261349    36.052197          120    17218.513    18183.343   -34430.093     1526.853   -1656.0784    -775.1442    72.261348    62.580164    36.052197     323.9211   -312055.93 
    2180    174.20823    163028.52    72.260743    72.260744    36.051896          120    17225.962    17981.016   -34617.703    1305.5487   -1178.0463   -977.18706    72.260743     62.57964    36.051896    196.42511   -312055.48 
    2190    175.40469    163024.69    72.260177    72.260178    36.051613          120     17410.09    17551.608   -34960.722     947.5701   -1106.8085   -1123.8591    72.260177     62.57915    36.051613   0.32553193   -312056.71 
    2200    174.16152    163020.98     72.25963     72.25963     36.05134          120     17482.08    17274.666   -34936.992     829.5984   -1145.7879   -1614.4477     72.25963    62.578676     36.05134   -60.081858   -312052.82 
    2210    175.75789    163017.34    72.259091    72.259091    36.051071          120    17790.626    17799.247   -35372.648    1018.8456    -1519.079   -1536.5307    72.259091    62.578209    36.051071    72.408341   -312054.21 
    2220    175.25185    163013.86    72.258577    72.258577    36.050815          120    17493.409    18938.777   -35419.622    991.07886    -1241.131     -1535.69    72.258577    62.577764    36.050815     337.5215   -312051.66 
    2230    176.89993    163010.75    72.258118    72.258118    36.050586          120    17214.796    19605.786   -35280.384    657.01319    -1638.626   -1619.3762    72.258118    62.577366    36.050586     513.3993   -312053.48 
    2240    177.85487    163008.12    72.257729    72.257729    36.050391          120    16597.806    19587.764   -36017.956    561.77509   -1580.4181   -1077.7296    72.257729    62.577029    36.050391    55.871108   -312054.14 
    2250    179.09834    163005.62    72.257359    72.257359    36.050207          120    16467.126    18981.672   -36442.578    597.93091   -1665.1279   -1572.1689    72.257359    62.576709    36.050207   -331.26001   -312055.02 
    2260    176.91903    163002.94    72.256964    72.256965     36.05001          120    16739.377    19248.798   -36605.685    798.34942   -1901.9494   -2017.2417    72.256964    62.576367     36.05001   -205.83661   -312049.71 
[...]
    9300    176.62055    163153.44    72.279195    72.279195    36.061101          120    17705.857    19559.342   -35053.671    528.87399   -832.96969   -2075.4736    72.279195    62.595619    36.061101    737.17595   -312063.49 
    9310    177.32771    163156.41    72.279634    72.279635     36.06132          120    18000.012    19405.303   -35043.473     1380.639   -1283.6089   -2386.4204    72.279634       62.596     36.06132    787.28053   -312063.71 
    9320    177.96768    163160.03    72.280168    72.280169    36.061587          120    18062.998    19567.289   -35505.075     1564.176   -1299.7429   -1494.9047    72.280168    62.596463    36.061587    708.40396   -312064.36 
    9330    177.42099     163164.2    72.280784    72.280784    36.061894          120    16860.762    19372.081   -35403.706    1429.2061   -1592.7689   -1512.9908    72.280784    62.596995    36.061894    276.37899   -312063.11 
    9340    176.40331    163168.55    72.281426    72.281426    36.062214          120    16901.059    18520.473   -35886.514    1139.2718   -1187.5814   -1643.5424    72.281426    62.597552    36.062214   -154.99377   -312060.25 
    9350    177.50146    163172.74    72.282044    72.282045    36.062523          120    16920.858    18490.015   -35637.805     1075.694   -722.86614   -1473.1217    72.282044    62.598087    36.062523   -75.644167   -312061.47 
    9360    176.87839    163176.84     72.28265     72.28265    36.062825          120     17001.11    18778.248   -34842.468    1516.1671   -549.90964   -1153.3766     72.28265    62.598612    36.062825    312.29657   -312060.55 
    9370    177.51837    163181.13    72.283283    72.283284    36.063141          120    17002.217    18779.952   -34727.121    1994.4068    -1182.888   -1122.6122    72.283283     62.59916    36.063141    351.68281   -312061.59 
    9380    176.89628    163185.66    72.283952    72.283953    36.063475          120    16899.511    18773.505    -35276.06    2431.5601   -999.60808   -1400.0703    72.283952    62.599739    36.063475    132.31836   -312060.39 
    9390    178.36091     163190.2    72.284624    72.284624     36.06381          120    16771.195    18196.962   -36226.785    1903.0466   -665.20057   -2137.7169    72.284624    62.600321     36.06381   -419.54279   -312063.32 
    9400    176.58268    163194.34    72.285234    72.285234    36.064114          120    16280.976    17975.982   -36236.648    1381.2675   -892.11753   -1382.7467    72.285234    62.600849    36.064114   -659.89656   -312059.77 
    9410    178.08901    163197.85    72.285753    72.285753    36.064373          120    16564.416    17718.373   -36179.604     1460.734   -907.93719   -861.92222    72.285753    62.601299    36.064373   -632.27179   -312062.88 
    9420    177.15382    163200.78    72.286185    72.286185    36.064589          120    17111.267    18148.966   -36169.642    1398.4621   -1099.0174   -1252.3744    72.286185    62.601673    36.064589   -303.13663   -312061.45 
    9430    178.74296    163203.41    72.286573    72.286574    36.064783          120    17222.281    18626.623   -35407.846    1090.7706    -893.5321   -1578.6915    72.286573    62.602009    36.064783    147.01926   -312064.91 
    9440    177.16306    163206.09    72.286969     72.28697     36.06498          120    16677.218    18431.244    -35019.17     1443.694   -1263.3213   -1786.7431    72.286969    62.602352     36.06498    29.763845      -312062 
    9450    177.02338    163208.74    72.287361    72.287361    36.065175          120    16345.845    18073.285   -35486.372    1224.0873   -1399.3398   -1760.8161    72.287361    62.602691    36.065175   -355.74703   -312062.66 
    9460    176.51047    163211.06    72.287702    72.287703    36.065346          120    16419.507    18058.068   -35935.286    677.36001   -1130.3577    -1501.648    72.287702    62.602987    36.065346   -485.90371   -312061.68 
    9470    175.33285    163212.95    72.287982    72.287982    36.065485          120    16159.829    18712.304   -35416.969    817.27723   -548.82499   -1607.2191    72.287982    62.603229    36.065485   -181.61184   -312060.08 
    9480    175.25839    163214.62    72.288228    72.288228    36.065608          120    15939.274    18694.643   -35820.298    678.81759   -630.76914   -1769.6431    72.288228    62.603442    36.065608   -395.46023   -312060.48 
    9490    175.48049    163215.91    72.288418    72.288419    36.065703          120     15775.97    18564.098   -36145.384    909.88581   -1341.8818   -1406.7367    72.288418    62.603607    36.065703   -601.77226   -312061.34 
    9500    175.62545    163216.64    72.288527    72.288527    36.065757          120    15963.365    18541.736   -36609.165    1326.3288   -1251.2587   -1379.5672    72.288527    62.603701    36.065757    -701.3549   -312063.13 
    9510    175.83527    163216.74    72.288541    72.288542    36.065764          120    16365.287    18081.309   -36602.283    1403.2693   -1202.8269   -958.76637    72.288541    62.603714    36.065764   -718.56236    -312064.6 
    9520     176.4016    163216.25    72.288469    72.288469    36.065728          120    16878.704    17661.498   -35178.976    1420.8518   -1205.6164   -1001.3437    72.288469    62.603651    36.065728   -212.92453   -312066.64 
    9530    175.49148    163215.57    72.288369    72.288369    36.065678          120    16817.178    17764.145   -34097.164    1493.4476   -782.82322   -1367.6234    72.288369    62.603564    36.065678    161.38625   -312065.56 
    9540    176.57287       163215    72.288285    72.288285    36.065636          120    16493.545    17942.464   -34524.332    976.83874   -832.45156   -1220.9538    72.288285    62.603492    36.065636   -29.441032   -312068.79 
    9550    174.55618    163214.37    72.288192    72.288192     36.06559          120    16356.435    17479.724   -35894.581      737.225   -1249.9222   -1351.3065    72.288192    62.603411     36.06559   -686.14059   -312065.86 
    9560    174.89081     163213.2    72.288018    72.288019    36.065504          120    16105.545    17553.379   -35623.837     1137.212   -943.45139    -1347.094    72.288018    62.603261    36.065504   -654.97077   -312067.35 
    9570    174.54773     163211.5    72.287767    72.287768    36.065378          120    17088.974    17735.362   -35480.131    1281.6975   -1181.5847    -2174.947    72.287767    62.603044    36.065378   -218.59841   -312067.87 
    9580    173.56514    163209.59    72.287486    72.287486    36.065238          120    17469.367    17898.295   -36156.148    1179.1541   -1314.5955   -1884.1422    72.287486      62.6028    36.065238   -262.82881   -312066.86 
    9590    172.76968    163207.49    72.287176    72.287176    36.065083          120    17344.709    18231.253   -36467.531    1168.6223   -1322.5365   -1573.3895    72.287176    62.602531    36.065083   -297.18954   -312066.38 
    9600    172.50777    163205.13    72.286827    72.286827    36.064909          120    16608.541    18029.555   -36443.094    1011.5257   -1554.7528   -1411.8146    72.286827    62.602229    36.064909    -601.6659   -312066.67 
    9610    173.25412    163202.31    72.286411    72.286411    36.064701          120    16331.387    18015.451   -35511.128    289.38879   -1541.4023   -1597.5187    72.286411    62.601869    36.064701   -388.09694   -312068.52 
    9620    174.10606    163199.17    72.285948    72.285948     36.06447          120        16530    18056.785   -35164.545    653.77547   -878.27217   -1084.0006    72.285948    62.601468     36.06447   -192.58671   -312070.98 
    9630      174.676    163195.89    72.285463    72.285464    36.064229          120     16615.59    18034.393   -35074.534    980.42412   -653.76919   -1503.4913    72.285463    62.601048    36.064229   -141.51687   -312072.34 
    9640    172.04505    163192.57    72.284972    72.284973    36.063984          120    16606.437    18634.819   -34600.381    842.85844   -754.85393   -1925.1735    72.284972    62.600623    36.063984      213.625   -312067.62 
    9650    173.95282    163189.41    72.284506    72.284507    36.063751          120    16655.614    18178.799   -35325.234    1386.5488   -926.75054   -1650.2292    72.284506    62.600219    36.063751   -163.60684      -312072 
    9660    173.45285    163186.11    72.284019    72.284019    36.063508          120    16085.168    17687.975   -36460.768    1441.9734   -1272.3628   -1467.3757    72.284019    62.599797    36.063508   -895.87473   -312070.83 
    9670    173.20403    163182.14    72.283432    72.283433    36.063215          120    15952.119     17779.98   -36291.543    1470.6246   -1217.9064   -1169.4887    72.283432    62.599289    36.063215   -853.14799   -312071.19 
    9680    172.64585    163177.49    72.282746    72.282746    36.062873          120    16602.717    17964.461   -35920.496    1742.9026   -809.64213   -1110.1245    72.282746    62.598695    36.062873   -451.10624   -312070.04 
    9690    172.67857     163172.5     72.28201     72.28201    36.062506          120    17097.093    18554.323   -35715.293    2014.3189    -760.3273   -1658.7544     72.28201    62.598057    36.062506   -21.292655   -312070.21 
    9700    171.73997    163167.55    72.281278    72.281279    36.062141          120    17378.451    18492.539   -35182.613     1752.146   -730.59252    -1893.059    72.281278    62.597424    36.062141    229.45878   -312069.03 
    9710    173.22203    163162.84    72.280583    72.280584    36.061794          120    17080.781    18550.372   -34419.903    1484.5122    -1357.291   -1723.3246    72.280583    62.596822    36.061794    403.74985   -312071.96 
    9720    174.26806    163158.52    72.279946    72.279946    36.061476          120    17020.863    18528.473    -35058.37    1277.8034   -1571.4009   -1692.5938    72.279946     62.59627    36.061476    163.65518   -312073.82 
    9730    172.25797    163154.41    72.279338    72.279339    36.061173          120    16905.795     18114.54   -35474.311    1043.0995   -921.78654   -1286.7048    72.279338    62.595744    36.061173   -151.32557   -312069.89 
    9740    171.31873    163150.26    72.278725    72.278725    36.060867          120     16702.06    18572.473   -35298.287    689.79085   -765.45656   -1734.4132    72.278725    62.595212    36.060867   -7.9179947   -312067.92 
    9750    173.58062    163146.15    72.278118    72.278119    36.060564          120    16790.775    18747.568   -34700.585    996.07064   -1145.9613   -1652.8663    72.278118    62.594687    36.060564    279.25257   -312071.73 
    9760    172.19759    163142.35    72.277557    72.277558    36.060284          120    17486.592    18634.198   -34450.818    981.69939    -754.7516   -1585.3047    72.277557    62.594201    36.060284    556.65771   -312068.69 
    9770    173.27355    163139.04    72.277068    72.277069     36.06004          120    17345.284    18685.265    -34615.18    856.56412   -521.76096   -1335.2673    72.277068    62.593778     36.06004    471.78941   -312070.12 
    9780    172.42051    163136.23    72.276653    72.276654    36.059833          120    17726.078    18831.296   -34617.293    867.88648   -901.96567   -1063.9882    72.276653    62.593418    36.059833    646.69383   -312067.46 
    9790    174.46488    163133.99    72.276322    72.276323    36.059668          120    17663.666    18950.866   -35331.259     998.4205   -608.88603   -1505.8245    72.276322    62.593132    36.059668    427.75786   -312071.11 
    9800    174.23644    163132.22    72.276061    72.276062    36.059538          120    17994.473    18822.409   -34734.361    891.54753   -600.10333   -1770.0956    72.276061    62.592906    36.059538    694.17353   -312070.18 
    9810    175.19241    163131.03    72.275885    72.275886     36.05945          120     17799.05    18563.265   -35421.483    735.89772    -1031.979   -1891.8141    72.275885    62.592754     36.05945    313.61094   -312070.81 
    9820    175.06678    163130.16    72.275757    72.275757    36.059386          120    17145.542    18617.602   -35132.331    474.95513   -967.31665   -1547.2299    72.275757    62.592642    36.059386    210.27074   -312069.82 
    9830     174.8238    163129.52    72.275662    72.275663    36.059339          120    17580.794    18781.812   -34829.966    831.99553   -705.67623   -1538.8395    72.275662     62.59256    36.059339    510.87979   -312068.61 
    9840    173.81085     163129.3     72.27563    72.275631    36.059323          120    17576.296    19199.891   -35375.828    1585.8333   -1359.0159   -1651.0462     72.27563    62.592533    36.059323    466.78616   -312066.26 
    9850    173.27086    163129.53    72.275664    72.275665     36.05934          120    17450.608    19098.611   -34919.226    1698.3956   -1138.1604   -1548.0543    72.275664    62.592562     36.05934    543.33077   -312064.61 
    9860    175.68837    163130.22    72.275765    72.275766     36.05939          120    17309.137    18955.155   -34896.759     1619.675   -983.70008   -1335.3514    72.275765    62.592649     36.05939    455.84454   -312068.21 
    9870     175.4943    163131.31    72.275927    72.275927    36.059471          120    17380.705    18702.804   -34837.934    1453.5705   -950.30367    -1703.824    72.275927    62.592789    36.059471    415.19136   -312067.02 
    9880    174.55331    163132.75     72.27614    72.276141    36.059577          120    17754.539     18478.29   -35415.308    765.94367    -298.0991   -1202.5795     72.27614    62.592974    36.059577    272.50705   -312063.99 
    9890    177.05548    163134.42    72.276386    72.276387      36.0597          120    17444.054    18669.775   -35388.087    468.11456   -618.19664   -1386.4247    72.276386    62.593187      36.0597    241.91381   -312067.71 
    9900    175.90665    163136.26    72.276658    72.276659    36.059836          120    17792.133    18373.416    -35723.09    686.25715   -990.47783   -1388.2006    72.276658    62.593423    36.059836    147.48657   -312064.94 
    9910    176.26562    163138.23    72.276948    72.276949     36.05998          120    17399.969    18367.025   -35058.165    662.07086   -728.89019   -1408.6868    72.276948    62.593674     36.05998    236.27646    -312064.7 
    9920    176.09594    163140.34     72.27726     72.27726    36.060136          120    16968.991    18461.032   -35525.324    1151.1323   -979.14602   -1363.6847     72.27726    62.593944    36.060136   -31.766884   -312063.81 
    9930    174.81778    163142.39    72.277563    72.277563    36.060287          120    16958.944     18614.51   -36634.129    1237.1832   -1354.6032   -744.90838    72.277563    62.594206    36.060287   -353.55828   -312060.67 
    9940    176.79002    163144.17    72.277825    72.277826    36.060418          120    16955.332    18801.334   -35655.284    930.70912   -1347.8892   -1100.7713    72.277825    62.594433    36.060418    33.793998   -312064.13 
    9950    177.31545    163145.91    72.278083    72.278084    36.060547          120      16574.1     18541.24   -35139.313    1003.2209   -1303.6685     -933.823    72.278083    62.594657    36.060547   -7.9910009   -312064.19 
    9960    176.29933    163147.64    72.278339    72.278339    36.060674          120    16803.725    18465.823   -35557.344    990.67883   -1205.2341   -1224.8939    72.278339    62.594878    36.060674   -95.932126   -312061.69 
    9970    176.97501    163149.24    72.278575    72.278576    36.060792          120    16726.827     18271.21   -36001.869    989.29462   -909.02431   -1287.1538    72.278575    62.595083    36.060792   -334.61081   -312062.45 
    9980    175.51861    163150.53    72.278765    72.278766    36.060887          120    16588.365     17846.69   -36129.013    1161.5832   -602.27689   -1197.9244    72.278765    62.595248    36.060887   -564.65257   -312059.39 
    9990    177.64213    163151.31    72.278881    72.278881    36.060945          120    16788.695    17667.336   -36485.467    1082.7687   -603.43464   -924.97777    72.278881    62.595348    36.060945   -676.47859   -312063.33 
   10000    177.47841    163151.55    72.278916    72.278917    36.060962          120    17237.782    18369.719   -36013.253    1183.5971   -368.66592   -617.33141    72.278916    62.595378    36.060962    -135.2506   -312062.56 
   10010    177.61472    163151.68    72.278934    72.278935    36.060971          120    17067.322    19426.126   -35079.017    806.29391    -638.4641   -1231.4834    72.278934    62.595394    36.060971    471.47684   -312062.71 
   10020    177.16283    163152.17    72.279007    72.279007    36.061008          120    17010.073    19426.966   -34870.949    943.38609   -770.34754   -1226.8197    72.279007    62.595457    36.061008    522.03026   -312061.68 
   10030    177.21926    163153.08    72.279142    72.279142    36.061075          120    16935.335    18707.315   -34584.489    1078.1692   -154.67236   -924.19242    72.279142    62.595573    36.061075    352.72008   -312061.52 
   10040          178    163154.26    72.279316    72.279317    36.061162          120    16834.187    18475.236   -35421.471    1245.9793   -416.58892   -868.00861    72.279316    62.595725    36.061162   -37.349172   -312063.29 
   10050    175.76469    163155.44     72.27949    72.279491    36.061249          120    16736.272    18694.983   -35501.661    1495.0542   -940.79505   -909.25377     72.27949    62.595876    36.061249   -23.468417   -312058.94 
   10060    178.04828     163156.6    72.279662    72.279662    36.061334          120    17144.908    18777.843   -35267.861    1350.8966   -1345.2924   -1531.9105    72.279662    62.596024    36.061334    218.29663   -312063.05 
   10070    177.64724    163157.93    72.279858    72.279858    36.061432          120    17330.756    18621.313   -35045.123    1089.5342   -893.93908   -2347.5315    72.279858    62.596194    36.061432    302.31551   -312063.25 
   10080    178.03259    163159.47    72.280085    72.280086    36.061546          120    17144.099    18237.314   -35851.108     1018.123   -801.54428   -1948.2672    72.280085    62.596391    36.061546   -156.56481   -312064.47 
   10090    176.16319    163160.88    72.280293    72.280293    36.061649          120    16764.912    17793.144   -36170.404    1394.6681   -1278.2042   -1347.1908    72.280293    62.596571    36.061649   -537.44934    -312061.6 
   10100    175.24546    163161.81    72.280431    72.280431    36.061718          120    16563.143    17586.642   -35718.594    1421.4251   -1156.9779   -1721.4927    72.280431     62.59669    36.061718   -522.93663   -312060.07 
   10110    175.78064    163162.27    72.280499      72.2805    36.061752          120    17235.263    17811.331   -35373.426    1422.0664   -1185.6522   -1633.8979    72.280499    62.596749    36.061752   -108.94398   -312061.62 
   10120    177.08554    163162.62    72.280551    72.280551    36.061778          120    17579.631    17914.427    -35060.81    1158.5859   -995.19623   -1288.2597    72.280551    62.596794    36.061778    144.41591   -312064.47 
   10130     175.9554    163163.03    72.280612    72.280612    36.061808          120    16808.991    17940.485   -35433.359     1111.954    -352.9183   -534.89872    72.280612    62.596847    36.061808   -227.96109   -312063.51 
   10140    174.87938    163163.24    72.280643    72.280643    36.061824          120    16196.291    18153.391    -35417.33    1221.6658   -537.52429   -436.26733    72.280643    62.596873    36.061824   -355.88276   -312062.71 
   10150      175.907     163163.1    72.280622    72.280623    36.061813          120    16104.804    18318.079   -36238.636    944.44783    -609.5036   -1197.4085    72.280622    62.596856    36.061813   -605.25097   -312065.77 