LAMMPS (16 Mar 2018)
Reading data file ...
  triclinic box = (0 0 0) to (9.208 7.97436 18.376) with tilt (-4.604 0 0)
  1 by 1 by 1 MPI processor grid
  reading atoms ...
  116 atoms
Finding 1-2 1-3 1-4 neighbors ...
  special bond factors lj:   0          0          0         
  special bond factors coul: 0          0          0         
  0 = max # of 1-2 neighbors
  0 = max # of 1-3 neighbors
  0 = max # of 1-4 neighbors
  1 = max # of special neighbors
Replicating atoms ...
  triclinic box = (0 0 0) to (73.664 63.7949 36.752) with tilt (-36.832 0 0)
  1 by 1 by 1 MPI processor grid
  14848 atoms
Finding 1-2 1-3 1-4 neighbors ...
  special bond factors lj:   0          0          0         
  special bond factors coul: 0          0          0         
  0 = max # of 1-2 neighbors
  0 = max # of 1-3 neighbors
  0 = max # of 1-4 neighbors
  1 = max # of special neighbors
  Time spent = 0.00267887 secs
PPPM initialization ...
WARNING: System is not charge neutral, net charge = -0.2048 (../kspace.cpp:302)
  using 12-bit tables for long-range coulomb (../kspace.cpp:321)
  G vector (1/distance) = 0.201681
  grid = 36 50 24
  stencil order = 5
  estimated absolute RMS force accuracy = 0.00105653
  estimated relative force accuracy = 7.33721e-05
  using double precision FFTs
  3d grid and FFT values/proc = 65395 43200
Neighbor list info ...
  update every 1 steps, delay 0 steps, check yes
  max neighbors/atom: 2000, page size: 100000
  master list distance cutoff = 15.3
  ghost atom cutoff = 15.3
  binsize = 7.65, bins = 15 9 5
  3 neighbor lists, perpetual/occasional/extra = 3 0 0
  (1) pair morse, perpetual
      attributes: half, newton on
      pair build: half/bin/newton/tri
      stencil: half/bin/3d/newton/tri
      bin: standard
  (2) pair buck, perpetual, copy from (1)
      attributes: half, newton on
      pair build: copy
      stencil: none
      bin: none
  (3) pair lj/cut/coul/long, perpetual, copy from (1)
      attributes: half, newton on
      pair build: copy
      stencil: none
      bin: none
Setting up Verlet run ...
  Unit style    : metal
  Current step  : 0
  Time step     : 0.001
Per MPI rank memory allocation (min/avg/max) = 145.7 | 145.7 | 145.7 Mbytes
Step Temp Volume Cella Cellb Cellc CellGamma Pxx Pyy Pzz Pxy Pxz Pyz Lx Ly Lz Press PotEng 
       0          250    172711.88       73.664    73.664001       36.752          120   -208534.67   -208573.72   -279555.91    20.984283   -6.3597717    8.5015437       73.664    63.794896       36.752   -232221.44   -309191.56 
      10     336.2806    172631.11    73.652515    73.652515     36.74627          120   -210651.68   -210739.42   -257886.64    107.76925   -20.477645   -163.58683    73.652515    63.784949     36.74627   -226425.91   -309391.94 
      20    600.75318    172393.81    73.618752    73.618752    36.729425          120   -208184.41   -207811.36   -198664.44    29.234891   -249.71482   -359.24038    73.618752     63.75571    36.729425   -204886.74   -309946.89 
      30    603.16756    172019.98    73.565501    73.565501    36.702857          120   -181979.44   -181534.83   -119069.57   -206.97097   -807.33935   -431.36247    73.565501    63.709593    36.702857   -160861.28   -310018.05 
      40    384.85498    171552.24    73.498762    73.498763    36.669561          120    -137600.5   -137733.82   -39466.697   -582.93174   -1140.1286   -470.37638    73.498762    63.651796    36.669561   -104933.67   -309649.92 
      50    469.25584    171047.98    73.426678    73.426679    36.633597          120   -95685.039   -96210.859    -5718.405   -669.42839   -1202.6872   -614.25064    73.426678    63.589369    36.633597   -65871.434    -309843.4 
      60    771.79552    170554.61    73.356013    73.356014    36.598341          120   -69603.865   -69500.235   -42353.607   -627.08271   -2081.0379   -450.44057    73.356013    63.528172    36.598341   -60485.902   -310460.47 
      70    951.48706    170092.78    73.289741    73.289741    36.565277          120   -52556.407    -52285.77   -105201.94   -1583.9769   -2425.5171   -451.22067    73.289741    63.470778    36.565277   -70014.707    -310872.1 
      80     810.8432    169664.73     73.22821     73.22821    36.534578          120   -42342.201    -43043.24   -151148.49   -1751.3587   -2931.1858    98.001006     73.22821    63.417491    36.534578   -78844.645   -310675.27 
      90     540.7545    169266.22    73.170832    73.170833    36.505952          120   -36658.393   -37371.611   -166025.59   -1990.4317     -3413.02   -262.99831    73.170832      63.3678    36.505952    -80018.53   -310214.04 
     100    557.99221    168893.77    73.117124    73.117125    36.479156          120   -21683.241    -21808.92   -146017.36   -1725.7497   -3171.9419   -744.22589    73.117124    63.321288    36.479156   -63169.842   -310290.99 
     110    730.88263    168550.63    73.067574    73.067575    36.454435          120   -2251.7399   -2471.3918   -103394.73   -1826.5019   -2268.9604   -879.79012    73.067574    63.278376    36.454435   -36039.287   -310673.92 
     120    734.14727    168243.37    73.023148    73.023149     36.43227          120    8636.1793    8676.2222   -52731.269   -1830.1758   -1767.2765   -1420.0192    73.023148    63.239902     36.43227   -11806.289   -310736.51 
     130    629.40349    167975.46    72.984366    72.984366    36.412921          120    7218.9132    8299.2127   -12958.581    -1768.291   -1701.9723   -1394.9195    72.984366    63.206316    36.412921    853.18165   -310584.59 
     140    582.30188    167744.18    72.950855    72.950855    36.396202          120    2329.1901    2272.3669    -481.3777     -1293.38   -1521.1349   -1206.2181    72.950855    63.177294    36.396202    1373.3931   -310533.41 
     150    634.04241    167541.24    72.921423    72.921423    36.381518          120   -5520.6021   -4334.1493   -23169.398   -1935.8771   -1168.1056   -572.23398    72.921423    63.151805    36.381518    -11008.05      -310674 
     160    695.49188    167353.25    72.894139    72.894139    36.367905          120   -15998.482   -14272.041   -59430.503   -1714.0762   -1380.1797   -482.74058    72.894139    63.128177    36.367905   -29900.342   -310843.28 
     170    676.61021    167165.74    72.866905    72.866906    36.354318          120   -20808.625   -18745.779   -89808.279   -714.97828   -2084.7725   -791.68559    72.866905    63.104591    36.354318   -43120.894   -310863.32 
     180    599.47468    166969.53    72.838384    72.838384    36.340088          120   -17584.303   -15872.504   -107017.38   -589.68712   -2321.2682   -834.80903    72.838384    63.079891    36.340088   -46824.727   -310767.95 
     190    574.11961    166762.48    72.808264    72.808264    36.325061          120   -12489.014   -11308.984   -105176.88    141.58217   -1755.8511   -748.59182    72.808264    63.053807    36.325061   -42991.628   -310766.58 
     200    610.79266    166547.84    72.777013    72.777014     36.30947          120   -8109.8277   -7478.9441   -85922.779   -620.09107   -1843.0166   -619.81581    72.777013    63.026743     36.30947   -33837.184   -310884.03 
     210    617.03236    166332.09    72.745575    72.745575    36.293785          120   -3638.5932   -2714.6936   -61968.745   -1110.1022   -1846.0788   -463.52628    72.745575    62.999516    36.293785   -22774.011   -310945.51 
     220    590.81815     166122.5    72.715006    72.715007    36.278534          120    244.07581    1295.6343   -42310.173   -898.14693   -1541.1046   -1504.4422    72.715006    62.973043    36.278534   -13590.154   -310941.24 
     230    569.07427    165924.32    72.686079     72.68608    36.264102          120    1051.3643    1268.5188   -34769.682   -613.04344   -1104.7567   -1801.1417    72.686079    62.947992    36.264102     -10816.6   -310942.95 
     240    569.55542    165738.56    72.658944    72.658944    36.250563          120   -990.69243   -970.00931   -39411.388   -349.21625   -1718.0933   -1946.5675    72.658944    62.924492    36.250563   -13790.696   -310986.15 
     250    584.24304    165562.54    72.633213    72.633213    36.237726          120   -3382.3654    -3634.669   -53397.445    58.537198   -1641.4863   -1924.8766    72.633213    62.902208    36.237726    -20138.16   -311059.11 
     260    579.88546    165391.84    72.608242    72.608243    36.225268          120   -3872.0917   -5267.9891   -68006.213    97.649453   -1501.2503   -2138.5091    72.608242    62.880583    36.225268   -25715.431   -311097.15 
     270    553.84865    165222.87    72.583506    72.583507    36.212927          120   -3114.6396   -4618.2723   -76257.122   -342.47981   -1414.0972   -1363.0632    72.583506    62.859161    36.212927   -27996.678   -311092.77 
     280    533.95731    165054.28    72.558811    72.558812    36.200606          120   -1613.8989   -2581.2145   -75444.242   -145.14721   -996.61075   -12.267632    72.558811    62.837775    36.200606   -26546.452   -311096.92 
     290    534.16813    164887.16    72.534314    72.534315    36.188384          120    1484.0711    1469.7961    -66192.13   -25.888725   -1165.1084    187.67577    72.534314    62.816559    36.188384   -21079.421   -311138.78 
     300    534.76326    164724.69    72.510483    72.510484    36.176494          120    5681.7788    5283.7543   -53062.576    116.04225   -1442.5051   -47.954841    72.510483    62.795921    36.176494   -14032.348   -311180.49 
     310    526.48054    164570.67    72.487876    72.487876    36.165215          120    8312.5589    7846.9905   -39160.999    181.74523   -1518.6409   -309.15401    72.487876    62.776342    36.165215     -7667.15   -311203.64 
     320    513.55097    164427.88    72.466906    72.466906    36.154753          120    8895.7174    8493.0959    -31147.27     225.3221   -1766.0494   -699.31543    72.466906    62.758182    36.154753   -4586.1522   -311216.08 
     330     507.1053    164296.91    72.447659     72.44766    36.145151          120    7384.2067    7708.6881   -31591.554   -20.618376    -1978.256    -800.6577    72.447659    62.741514    36.145151   -5499.5531   -311241.76 
     340    506.58655    164175.93    72.429872    72.429873    36.136276          120    5754.7098    6842.4825    -40068.58    339.11203   -1418.8184   -810.91277    72.429872     62.72611    36.136276   -9157.1293   -311277.67 
     350    500.96376    164061.66    72.413064    72.413065    36.127891          120    5160.2987    5641.8968    -51265.74    13.555486   -466.46853   -780.43976    72.413064    62.711554    36.127891   -13487.848   -311303.39 
     360    485.51563    163950.86     72.39676     72.39676    36.119756          120    5243.7942    6835.0187   -58352.592   -882.24046   -265.62142    -1161.729     72.39676    62.697434    36.119756   -15424.593   -311309.05 
     370    469.23798    163841.91     72.38072     72.38072    36.111753          120    6220.9997    9261.7334   -58571.863   -1006.7571   -1449.7125   -1299.6133     72.38072    62.683543    36.111753   -14363.043   -311311.72 
     380    467.72203    163735.07    72.364983    72.364983    36.103902          120     8486.441    11256.369   -53642.765   -1330.0754   -1693.8131   -1315.1475    72.364983    62.669914    36.103902   -11299.985   -311341.74 
     390    464.52464    163631.78    72.349763    72.349763    36.096309          120    10970.635    12769.784    -45465.43   -1696.8296   -2115.8907    -1346.999    72.349763    62.656733    36.096309   -7241.6704   -311368.26 
     400    452.80873    163534.01     72.33535     72.33535    36.089118          120    13562.982    14875.293    -36181.04   -137.30516   -2285.9098   -991.56055     72.33535    62.644251    36.089118   -2580.9219   -311376.85 
     410    445.18291    163443.75     72.32204    72.322041    36.082477          120    14781.157    16297.814   -30121.853   -293.97137   -1828.2526   -1110.4572     72.32204    62.632725    36.082477    319.03939   -311392.74 
     420    442.66474    163361.85    72.309958    72.309958    36.076449          120     15196.68    15995.113   -30233.279   -457.83858   -1610.0579   -673.62291    72.309958    62.622261    36.076449    319.50487   -311417.48 
     430    437.68417    163287.44    72.298977    72.298977    36.070971          120    14866.881    14276.111   -34238.346    174.44124   -1437.6278    199.10833    72.298977    62.612751    36.070971   -1698.4513    -311437.3 
     440    432.81197    163218.54    72.288807    72.288808    36.065897          120    14148.094    12622.095   -40653.498    131.16318   -1963.0403    161.86185    72.288807    62.603944    36.065897   -4627.7695   -311456.86 
     450    423.09588    163152.95    72.279123    72.279123    36.061065          120    13907.552     12956.15   -45207.186    218.04901   -1974.5726   -263.76854    72.279123    62.595557    36.061065   -6114.4948   -311466.05 
     460    414.54573    163089.44    72.269743    72.269744    36.056386          120    15078.177    14819.512   -45585.228    1022.0901   -1436.5442   -708.63331    72.269743    62.587434    36.056386   -5229.1798   -311477.16 
     470    409.24591    163028.24    72.260701    72.260702    36.051875          120    17599.951    16707.963   -42649.938    793.09794    -1570.132   -152.86249    72.260701    62.579603    36.051875   -2780.6747   -311492.88 
     480    404.42862    162970.46    72.252165    72.252165    36.047616          120    19323.066    18033.261   -36818.426    635.78174   -1394.1861    343.20045    72.252165    62.572211    36.047616    179.30046   -311508.71 
     490    397.43019    162917.45    72.244329     72.24433    36.043706          120    19531.713    19060.029   -32087.524    1054.0184   -1004.1982    889.35644    72.244329    62.565425    36.043706    2168.0725   -311519.59 
     500    393.63569    162869.94    72.237305    72.237306    36.040202          120    19914.278    20036.741   -29905.863    867.52508   -508.46485    657.78986    72.237305    62.559342    36.040202    3348.3853   -311536.87 
     510    392.51173    162828.07    72.231116    72.231116    36.037114          120    19453.276    20315.298   -30487.761    878.31735   -258.52914    1175.9163    72.231116    62.553982    36.037114     3093.604   -311558.82 
     520    384.67828    162791.22    72.225666    72.225667    36.034395          120    18100.011    19871.378   -32782.691    468.79528   -639.58419     754.9045    72.225666    62.549262    36.034395    1729.5659   -311567.47 
     530     377.3396    162758.21    72.220784    72.220785    36.031959          120    18116.371    19576.177   -35150.562    280.23048   -979.54801   -101.07277    72.220784    62.545034    36.031959    847.32903   -311575.71 
     540    372.08347    162728.16    72.216339     72.21634    36.029742          120    18505.532    20208.247   -37668.128    745.90006   -1954.7108   -227.53354    72.216339    62.541185    36.029742    348.54997   -311587.06 
     550    366.81846    162700.55    72.212254    72.212255    36.027704          120    18353.178    21031.011   -37963.287    437.25084   -1899.9327    -834.2073    72.212254    62.537647    36.027704    473.63411   -311598.23 
     560    362.35523    162675.23    72.208509    72.208509    36.025835          120    18411.385    21445.027   -36113.766   -180.70489   -2038.8686   -163.30244    72.208509    62.534403    36.025835    1247.5488    -311610.5 
     570    357.48245    162652.52    72.205148    72.205149    36.024158          120    20306.713    22421.407   -33392.956   -634.73845   -1747.5223    385.48429    72.205148    62.531493    36.024158    3111.7213   -311621.67 
     580    353.70246    162633.22    72.202291    72.202292    36.022733          120    20719.276    22949.009   -30400.957   -318.60593   -1407.6696    746.18016    72.202291    62.529019    36.022733    4422.4425    -311634.2 
     590    346.89415    162617.85    72.200017    72.200018    36.021599          120    20589.282    22807.193   -28785.947   -337.82155   -1710.1306    690.10659    72.200017     62.52705    36.021599     4870.176   -311640.66 
     600    341.31206     162606.4    72.198323    72.198323    36.020753          120    20624.717    22270.841   -29067.523    55.503697   -1120.6681    956.25484    72.198323    62.525582    36.020753    4609.3445   -311648.65 
     610    339.87268    162598.41    72.197139     72.19714    36.020163          120    20714.254    21143.875   -31458.161    230.77229   -637.27716    844.05925    72.197139    62.524557    36.020163    3466.6562   -311663.69 
     620    335.56647    162592.99    72.196338    72.196338    36.019763          120    19749.552    20369.556   -34057.717   -238.17257    241.24156   -93.171761    72.196338    62.523863    36.019763    2020.4636   -311673.21 
     630    334.69421    162589.18    72.195774    72.195775    36.019482          120    19866.896    20079.343   -35704.544    -462.6917    252.00189   -783.10373    72.195774    62.523375    36.019482    1413.8984   -311688.66 
     640     329.4105     162586.5    72.195377    72.195378    36.019284          120    19540.418    21083.331   -35790.679   -353.69302   -164.26187   -1058.2088    72.195377    62.523031    36.019284    1611.0233   -311696.01 
     650    322.29795    162584.99    72.195153    72.195154    36.019172          120    19800.343    22240.988   -34803.412   -660.56725    -713.2769    -1674.737    72.195153    62.522837    36.019172    2412.6397   -311699.04 
     660    322.77004    162585.03    72.195159     72.19516    36.019175          120    20587.452    22414.053   -32644.835   -548.03111   -1121.3073   -1653.3813    72.195159    62.522842    36.019175    3452.2231   -311715.66 
     670    315.75979    162587.14    72.195472    72.195472    36.019331          120    21170.321    22533.226   -30486.662    224.05348   -1155.4374   -1362.3469    72.195472    62.523113    36.019331     4405.628   -311717.95 
     680    312.23746    162591.73    72.196151    72.196151    36.019669          120    21189.838    22212.954   -29995.956    281.54849   -1948.8087   -171.86978    72.196151    62.523701    36.019669    4468.9451   -311726.73 
     690    306.05538    162598.69    72.197181    72.197181    36.020183          120    20957.949    21858.637   -31529.748    5.9297633   -1859.9084    278.91664    72.197181    62.524593    36.020183    3762.2795   -311729.37 
     700     302.9468    162607.45    72.198478    72.198479    36.020831          120     20080.03    20706.151   -33543.385   -354.68441   -1410.9622    268.88092    72.198478    62.525717    36.020831    2414.2653    -311737.5 
     710    301.13065    162617.19    72.199919    72.199919    36.021549          120    19115.563    20265.114   -34632.247   -536.23336   -959.50187    882.42978    72.199919    62.526964    36.021549    1582.8101    -311747.4 
     720    300.24766    162627.32    72.201419     72.20142    36.022298          120    19156.666    20552.365   -35623.547   -714.47578   -516.99593    143.60328    72.201419    62.528264    36.022298    1361.8279   -311758.97 
     730    298.58586     162637.7    72.202955    72.202956    36.023064          120    19303.217    19895.343   -35539.404   -261.00439    -16.01145   -752.67326    72.202955    62.529594    36.023064    1219.7188    -311768.8 
     740    294.68864    162648.26    72.204517    72.204518    36.023844          120    19404.369    20125.056   -34228.687   -160.53477   -186.16387     -977.199    72.204517    62.530947    36.023844    1766.9126   -311774.14 
     750    290.93904    162659.32    72.206154    72.206154     36.02466          120    20431.387    20638.263   -32892.852   -34.865061   -540.47999   -1354.1176    72.206154    62.532364     36.02466    2725.5994   -311779.31 
     760    288.48158    162671.35    72.207933    72.207934    36.025548          120    20447.728    20132.333   -32947.658      70.5734    -1417.583   -804.77199    72.207933    62.533905    36.025548     2544.134   -311786.59 
     770    282.56006    162684.25    72.209842    72.209843      36.0265          120    19928.541    19930.259   -32869.087    -233.7415   -1876.4771   -786.04073    72.209842    62.535558      36.0265    2329.9042   -311786.94 
     780    284.37296    162697.84    72.211853    72.211853    36.027504          120    19708.154    19516.626   -33188.179   -136.34319   -1894.5993   -909.91463    72.211853      62.5373    36.027504    2012.2003   -311801.44 
     790    281.29527    162711.91    72.213935    72.213936    36.028542          120    19297.707    19589.028   -34152.252    173.87007   -1541.6459   -421.47128    72.213935    62.539103    36.028542    1578.1607   -311807.08 
     800    276.55283     162726.2    72.216048    72.216049    36.029597          120    18973.003    20083.605   -35403.148   -1.5290277   -1384.1945   -955.45335    72.216048    62.540933    36.029597    1217.8199   -311808.39 
     810    274.98691    162740.44    72.218156    72.218156    36.030648          120    18634.033    20211.237   -36508.161   -172.24577    -1149.402   -1268.5523    72.218156    62.542758    36.030648    779.03629    -311815.5 
     820    273.92353     162754.4     72.22022     72.22022    36.031678          120    17896.482    19621.712   -36818.727    373.43727   -577.44436   -1104.6211     72.22022    62.544546    36.031678    233.15566   -311823.74 
     830    271.29196    162767.81    72.222203    72.222204    36.032667          120    18060.456    19046.172   -36355.011    356.58949    -953.9264   -967.98821    72.222203    62.546263    36.032667     250.5392   -311827.67 
     840    266.76133    162780.71    72.224112    72.224113     36.03362          120    19217.433    19584.093   -35750.881    542.54021     -1245.84   -787.40623    72.224112    62.547916     36.03362    1016.8819   -311828.03 
     850    266.45476    162793.58    72.226015    72.226015    36.034569          120    19815.626    20235.393   -33859.664    725.98935   -861.70587   -966.21036    72.226015    62.549564    36.034569    2063.7849   -311836.35 
     860    263.98685    162806.99    72.227998    72.227999    36.035559          120    19799.737    20450.358   -33388.695    648.83942   -566.14329   -817.18562    72.227998    62.551282    36.035559    2287.1335   -311840.21 
     870    261.36146    162821.12    72.230087    72.230088    36.036601          120    19321.407    21177.566   -33555.354   -98.761697   -1239.7964   -577.57546    72.230087    62.553091    36.036601    2314.5394   -311843.48 
     880    262.61734     162835.9    72.232273    72.232273    36.037691          120    19454.466    21102.849   -35167.203    37.144572    -1365.789    -101.9658    72.232273    62.554984    36.037691    1796.7041   -311853.36 
     890    258.37369    162851.03    72.234511    72.234511    36.038808          120    19225.216    19995.862   -35844.287    243.40262   -1559.6772    140.93887    72.234511    62.556922    36.038808    1125.5966   -311853.06 
     900    256.61426    162866.09    72.236737    72.236738    36.039919          120    19069.298    18495.241   -36381.855    340.32081   -1043.9253    -62.54454    72.236737     62.55885    36.039919    394.22778   -311857.26 
     910    252.44623    162880.69    72.238896    72.238896    36.040995          120    19099.652    18069.213   -36520.408    742.35391   -482.03234   -133.80966    72.238896    62.560719    36.040995     216.1524    -311855.8 
     920    255.29612    162894.71    72.240967    72.240968    36.042029          120    18838.139    18363.358   -37006.776    685.10796   -939.57814   -31.111929    72.240967    62.562514    36.042029    64.907053   -311868.11 
     930    252.54095    162908.14    72.242953    72.242954     36.04302          120    18657.184    18803.793     -35430.7    589.48524   -1016.8173    168.81826    72.242953    62.564234     36.04302    676.75888   -311868.98 
     940    250.02361    162921.33    72.244902    72.244903    36.043992          120    18232.147    18250.856   -33474.637    775.82025   -1757.3311   -100.75736    72.244902    62.565921    36.043992    1002.7887   -311870.32 
     950     252.4651    162934.48    72.246847    72.246848    36.044963          120    18578.383    18597.682     -33745.6    296.81087   -1431.3816    46.304968    72.246847    62.567605    36.044963    1143.4885   -311879.72 
     960    249.17385    162947.68    72.248797    72.248798    36.045936          120    19388.106    18303.382   -35118.211   -78.776893   -1414.8713   -232.00185    72.248797    62.569294    36.045936    857.75895   -311879.27 
     970    247.50567    162960.71    72.250723    72.250724    36.046896          120    18617.943    17136.413    -36618.25    492.23688    -1636.166    243.41674    72.250723    62.570962    36.046896   -287.96475   -311881.66 
     980    244.10349       162973     72.25254     72.25254    36.047803          120    17836.861    16880.959   -37012.494    203.85302   -1418.3693   -266.07566     72.25254    62.572536    36.047803   -764.89106      -311880 
     990    245.78848    162984.26    72.254204    72.254204    36.048633          120    17149.413    17190.127   -37274.549    238.71221   -1689.9252   -562.06349    72.254204    62.573977    36.048633   -978.33622   -311887.83 
    1000    244.21081    162994.46    72.255711    72.255712    36.049385          120    17528.932    18134.646   -36583.027    438.41676   -1492.9989    93.323555    72.255711    62.575282    36.049385   -306.48304    -311889.1 
Loop time of 302.29 on 1 procs for 1000 steps with 14848 atoms

Performance: 0.286 ns/day, 83.969 hours/ns, 3.308 timesteps/s
100.0% CPU use with 1 MPI tasks x no OpenMP threads

MPI task timing breakdown:
Section |  min time  |  avg time  |  max time  |%varavg| %total
---------------------------------------------------------------
Pair    | 240.79     | 240.79     | 240.79     |   0.0 | 79.66
Bond    | 0.00015783 | 0.00015783 | 0.00015783 |   0.0 |  0.00
Kspace  | 10.865     | 10.865     | 10.865     |   0.0 |  3.59
Neigh   | 43.966     | 43.966     | 43.966     |   0.0 | 14.54
Comm    | 0.42431    | 0.42431    | 0.42431    |   0.0 |  0.14
Output  | 0.010555   | 0.010555   | 0.010555   |   0.0 |  0.00
Modify  | 6.1273     | 6.1273     | 6.1273     |   0.0 |  2.03
Other   |            | 0.1073     |            |       |  0.04

Nlocal:    14848 ave 14848 max 14848 min
Histogram: 1 0 0 0 0 0 0 0 0 0
Nghost:    46870 ave 46870 max 46870 min
Histogram: 1 0 0 0 0 0 0 0 0 0
Neighs:    1.00974e+07 ave 1.00974e+07 max 1.00974e+07 min
Histogram: 1 0 0 0 0 0 0 0 0 0

Total # of neighbors = 10097395
Ave neighs/atom = 680.051
Ave special neighs/atom = 0
Neighbor list builds = 160
Dangerous builds = 0
PPPM initialization ...
  using 12-bit tables for long-range coulomb (../kspace.cpp:321)
  G vector (1/distance) = 0.202628
  grid = 36 50 24
  stencil order = 5
  estimated absolute RMS force accuracy = 0.000996211
  estimated relative force accuracy = 6.9183e-05
  using double precision FFTs
  3d grid and FFT values/proc = 65395 43200
Setting up Verlet run ...
  Unit style    : metal
  Current step  : 0
  Time step     : 0.001
Per MPI rank memory allocation (min/avg/max) = 151.5 | 151.5 | 151.5 Mbytes
Step Temp Volume Cella Cellb Cellc CellGamma Pxx Pyy Pzz Pxy Pxz Pyz Lx Ly Lz Press PotEng 
       0    244.21081    162994.46    72.255711    72.255712    36.049385          120    17541.266    18147.424   -36575.721    438.98801   -1493.0592    93.254722    72.255711    62.575282    36.049385   -295.67722   -311888.92 
      10    244.83872    163004.02    72.257122    72.257123    36.050089          120     17546.98    18383.211   -35332.836    448.90913   -1640.8119       555.23    72.257122    62.576504    36.050089    199.11827   -311893.72 
      20    242.66404    163013.26    72.258488    72.258489    36.050771          120    17523.537    18590.085     -34675.3    363.99567   -1274.6912    678.59375    72.258488    62.577687    36.050771    479.44035   -311893.26 
      30    240.49339    163022.37    72.259834    72.259835    36.051442          120     17735.71    18525.059    -34412.75    382.74006   -769.05848    816.70509    72.259834    62.578853    36.051442    616.00609   -311891.95 
      40    240.93625    163031.39    72.261167    72.261168    36.052107          120    17363.338    17892.495    -35061.88    692.74931   -471.81536    1070.7592    72.261167    62.580007    36.052107    64.651212   -311895.15 
      50    239.81051    163040.04    72.262445    72.262445    36.052744          120    17079.668    16814.662    -35738.34    691.14887   -559.29354    866.87732    72.262445    62.581114    36.052744   -614.67034   -311895.49 
      60    239.03564    163047.94    72.263612    72.263612    36.053327          120    16405.873    16512.364   -35998.268      155.104   -1186.2491    385.31924    72.263612    62.582124    36.053327    -1026.677   -311896.13 
      70    237.75498    163054.89     72.26464     72.26464     36.05384          120    16227.081    16538.566    -35706.43    97.949343   -1379.0854   -400.70834     72.26464    62.583014     36.05384   -980.26105   -311895.24 
      80    237.67766    163060.92     72.26553    72.265531    36.054284          120     16203.41    16861.312   -36433.953    224.24095   -1018.5112    96.268504     72.26553    62.583786    36.054284    -1123.077   -311896.55 
      90    238.86049    163066.03    72.266284    72.266284     36.05466          120    16611.836    17150.942    -36398.97    93.066117   -1165.9283    612.46519    72.266284    62.584438     36.05466   -878.73088   -311899.79 
     100    240.93884    163070.35    72.266923    72.266924    36.054979          120    17276.451    16223.803    -35834.14    155.99883   -933.19998    227.02097    72.266923    62.584992    36.054979   -777.96221   -311904.15 
     110    239.94784    163074.07    72.267472    72.267473    36.055253          120    18043.082    16852.798   -35513.666     721.4319   -1090.2372    -363.6204    72.267472    62.585467    36.055253   -205.92862   -311901.89 
     120    240.51525    163077.44     72.26797    72.267971    36.055501          120    17753.597    17200.098   -36249.766    626.35712   -1261.5647   -732.32084     72.26797    62.585899    36.055501   -432.02353   -311902.52 
     130    241.68654     163080.4    72.268407    72.268408    36.055719          120    16514.779    17293.397    -36252.07   -126.31232   -771.69747    90.003495    72.268407    62.586277    36.055719   -814.63131   -311904.06 
     140    241.06038    163082.75    72.268754    72.268755    36.055892          120    16134.524    17118.274   -36352.766   -326.09754   -500.21625    1064.9951    72.268754    62.586578    36.055892   -1033.3225   -311901.58 
     150    242.31411     163084.4    72.268998    72.268998    36.056014          120      16420.8     16937.83   -36012.751   -147.01027    -535.1739    1362.5969    72.268998    62.586789    36.056014   -884.70684   -311902.33 
     160    243.72686    163085.46    72.269154    72.269155    36.056092          120    18004.374    16798.834   -35782.182   -201.63623   -774.51829    1556.2707    72.269154    62.586924    36.056092   -326.32437   -311903.76 
     170     241.4984    163086.26    72.269272    72.269273    36.056151          120     18479.57    16806.791   -35828.385   -119.81531   -797.65136    1141.4592    72.269272    62.587026    36.056151    -180.6749   -311897.41 
     180    244.15053    163086.85     72.26936    72.269361    36.056195          120    17615.115    16822.932   -37132.182    -218.5731   -806.84113    802.40845     72.26936    62.587102    36.056195   -898.04491   -311900.14 
     190    245.13807    163086.92     72.26937    72.269371      36.0562          120    17408.188    16937.859   -36907.584   -662.84641   -892.59532    646.60603     72.26937    62.587111      36.0562   -853.84608    -311899.5 
     200    246.89632    163086.47    72.269304    72.269305    36.056167          120    16867.738    17539.551   -36425.816   -379.79413   -590.11852    251.78243    72.269304    62.587054    36.056167   -672.84227   -311900.65 
     210    246.43494    163085.62    72.269179    72.269179    36.056104          120    16597.679      17761.4   -36211.235   -299.40263   -608.08244    68.809436    72.269179    62.586945    36.056104   -617.38532    -311896.8 
     220    246.67462    163084.44    72.269004    72.269005    36.056017          120    17374.519    17564.406   -35963.556   -605.38029   -1067.8789    260.19607    72.269004    62.586794    36.056017   -341.54359   -311894.39 
     230    245.32763    163083.11    72.268808    72.268808    36.055919          120    17713.844    17639.698   -35288.409   -630.07057   -1598.9088    370.33925    72.268808    62.586624    36.055919    21.711009   -311888.91 
     240    246.98374    163081.82    72.268617    72.268618    36.055824          120    17864.053    17636.192   -35343.419     78.52504   -1607.1688    299.58565    72.268617    62.586459    36.055824    52.275529   -311889.21 
     250    247.80168    163080.63    72.268441    72.268441    36.055736          120    17642.166    18104.451   -35063.723   -473.57183   -1884.9419     873.5573    72.268441    62.586306    36.055736    227.63137   -311887.66 
     260    248.44866    163079.55    72.268282    72.268283    36.055657          120    17122.421    17702.943   -36682.441   -629.80704   -1095.2378    866.32543    72.268282    62.586169    36.055657   -619.02581   -311885.66 
     270    250.83938    163078.16    72.268077    72.268077    36.055554          120    16324.354    17339.033   -37205.578   -310.44131   -291.28035    543.94121    72.268077    62.585991    36.055554   -1180.7305   -311886.81 
     280    252.56704    163076.14    72.267778    72.267779    36.055405          120    16124.679    17630.434   -37344.871   -404.40874   -54.776191    389.62278    72.267778    62.585733    36.055405   -1196.5861    -311887.2 
     290    250.71111    163073.48    72.267386    72.267386    36.055209          120    16339.131    17256.892   -36989.367   -27.962223   -406.87816     2.465716    72.267386    62.585392    36.055209   -1131.1145   -311880.26 
     300    253.13606    163070.25    72.266907    72.266908    36.054971          120    16939.178    17149.057   -36317.091    108.39361   -1091.7104    571.25633    72.266907    62.584978    36.054971   -742.95184   -311882.15 
     310    254.55662    163066.69    72.266382    72.266383    36.054709          120    17237.606    17565.381   -35416.787   -24.857644   -964.49214    798.37043    72.266382    62.584524    36.054709   -204.60021   -311882.06 
     320    256.06691    163063.15    72.265859    72.265859    36.054448          120    17730.693    17814.677   -35214.175      32.2511     -1634.08    516.60166    72.265859     62.58407    36.054448    110.39832   -311882.37 
     330    255.95464    163059.78    72.265361    72.265361    36.054199          120    17304.972    17948.423   -35487.089    -423.7072   -1577.8946    705.98755    72.265361    62.583639    36.054199   -77.897968   -311879.55 
     340    254.79235    163056.51    72.264878    72.264878    36.053958          120    17776.638    18033.351   -35574.485   -597.65398   -1784.4344    1261.2963    72.264878    62.583221    36.053958    78.501266   -311875.21 
     350    257.13602    163053.43    72.264424    72.264424    36.053732          120    17861.477     18946.96   -35317.409   -801.39525   -1685.3211    1518.3471    72.264424    62.582827    36.053732    497.00928   -311877.93 
     360    255.13689    163050.73    72.264025    72.264026    36.053533          120    17029.917    18995.575    -35147.41   -481.09507    -1202.358    1998.5838    72.264025    62.582482    36.053533    292.69402   -311873.03 
     370    255.40463    163048.32    72.263669    72.263669    36.053355          120    17017.667    18875.286   -34935.148   -403.84034   -1398.9456    1985.4245    72.263669    62.582174    36.053355    319.26827   -311872.66 
     380    258.34173    163046.19    72.263353    72.263354    36.053198          120    17769.816    18702.978   -35101.064   -557.42201   -1071.1409    1573.2149    72.263353      62.5819    36.053198    457.24341   -311877.28 
     390    257.58156     163044.4    72.263089     72.26309    36.053066          120     17847.27    18593.708   -35293.976   -307.37734   -1291.9063    784.47188    72.263089    62.581672    36.053066    382.33401   -311874.81 
     400    257.83289    163042.89    72.262866    72.262867    36.052955          120    17920.637    18105.696   -35923.559   -75.294319   -1180.7798    660.31115    72.262866    62.581479    36.052955    34.257779   -311873.94 
     410    259.23707    163041.47    72.262656    72.262656     36.05285          120    18202.516    17816.849   -36571.062    301.58106   -1856.0979    612.07375    72.262656    62.581296     36.05285   -183.89911   -311876.61 
     420    258.20281    163040.02    72.262442    72.262443    36.052743          120    18112.208     18068.49   -35885.516    900.24983   -2167.1084    857.04818    72.262442    62.581111    36.052743    98.393703   -311874.87 
     430    260.07303    163038.67    72.262243    72.262243    36.052644          120    18033.356    18498.529   -36225.577    948.23637   -2175.4064    673.06159    72.262243    62.580939    36.052644    102.10258   -311878.81 
     440    258.43463    163037.42    72.262057    72.262058    36.052551          120     17843.46    18400.154   -36690.089    467.63572    -2519.111    300.01295    72.262057    62.580778    36.052551    -148.8251    -311876.5 
     450    258.92421    163036.12    72.261866    72.261867    36.052456          120    18257.406    17795.401   -36916.558    57.413881   -1586.7899    287.84457    72.261866    62.580613    36.052456   -287.91713   -311878.71 
     460     257.1496    163034.74    72.261662    72.261662    36.052354          120    18873.871    17645.687    -36136.62    -300.2314   -1542.7018    216.07282    72.261662    62.580435    36.052354    127.64573   -311876.78 
     470    257.11761    163033.49    72.261478    72.261479    36.052262          120    18876.266    17639.285    -34578.85   -729.19697   -1674.4341    457.64474    72.261478    62.580276    36.052262    645.56707   -311878.84 
     480    255.35236    163032.65    72.261354    72.261354      36.0522          120    18093.189     17817.73   -34242.823   -646.06341   -1730.5953    500.74778    72.261354    62.580169      36.0522    556.03204   -311877.04 
     490    256.97197    163032.19    72.261285    72.261285    36.052166          120    17455.718    18450.893   -34102.299   -10.668439   -1423.9127     759.1076    72.261285    62.580109    36.052166    601.43735   -311882.18 
     500    256.28513     163032.1    72.261272    72.261273    36.052159          120     18116.64    19036.123   -35236.616   -421.16867   -1573.9992    546.71472    72.261272    62.580098    36.052159    638.71574   -311882.97 
     510     257.0771    163032.39    72.261315    72.261315    36.052181          120    18122.547    18697.596   -35158.021    -307.6603   -1800.5964    496.86939    72.261315    62.580135    36.052181    554.04058   -311887.68 
     520    256.60832    163033.01    72.261407    72.261408    36.052227          120    17609.042    18920.451   -34967.512    26.820673   -2348.8423    538.33957    72.261407    62.580215    36.052227    520.66061   -311889.68 
     530    255.75311    163033.94    72.261544    72.261544    36.052295          120    18112.685    18852.048   -34726.291   -19.673032   -2026.6496   -9.2198748    72.261544    62.580333    36.052295    746.14727   -311891.53 
     540    253.31563    163035.33    72.261749     72.26175    36.052397          120    19191.849    19387.188   -34063.071     385.9887   -1999.5356    211.12088    72.261749    62.580511    36.052397     1505.322   -311890.17 
     550    252.98366    163037.54    72.262076    72.262076     36.05256          120    18523.722    19933.887   -34177.849    959.81964   -2911.7794    254.29395    72.262076    62.580794     36.05256    1426.5866   -311892.66 
     560    251.24751    163040.53    72.262517    72.262518    36.052781          120    18007.172    19611.507   -34498.841    268.46152   -2600.0499    533.00577    72.262517    62.581176    36.052781    1039.9461   -311892.88 
     570    251.69958    163044.05    72.263038    72.263038     36.05304          120    18571.048    19400.949   -35654.646    250.74742   -2350.7915    471.31781    72.263038    62.581627     36.05304    772.45016   -311897.62 
     580    249.95349    163047.95    72.263614    72.263615    36.053328          120     19002.37    19367.711   -35420.678    482.03719   -1324.4368    1157.0075    72.263614    62.582126    36.053328    983.13427   -311897.66 
     590    247.58481     163052.3    72.264256    72.264256    36.053648          120    19149.505    19150.571   -35598.625    -625.5768   -1304.1912     2112.854    72.264256    62.582682    36.053648    900.48382    -311896.5 
     600    249.73479    163057.06    72.264959     72.26496    36.053999          120    19647.892    18997.451    -35322.63   -329.45728   -1578.7699    1952.6747    72.264959    62.583291    36.053999    1107.5713   -311903.83 
     610     251.4905    163062.33    72.265738    72.265738    36.054387          120    20004.563    18718.868   -34899.555     710.6139   -1901.0463    650.79196    72.265738    62.583965    36.054387    1274.6251   -311910.48 
     620    249.04288    163068.19    72.266604    72.266605     36.05482          120    19576.787    18893.839   -35411.868    666.62938   -1953.6118   -694.49396    72.266604    62.584716     36.05482    1019.5862    -311908.9 
     630    246.52495    163074.47    72.267532    72.267532    36.055282          120    19274.885    18430.999   -35986.408    857.34556    -2623.837   -1262.2361    72.267532    62.585519    36.055282    573.15866   -311906.55 
     640     247.8473    163080.92    72.268484    72.268485    36.055758          120    20040.113    17792.077    -35907.43    490.62905   -2422.7722   -468.81395    72.268484    62.586344    36.055758    641.58643   -311912.54 
     650     246.3286    163087.52    72.269459    72.269459    36.056244          120    19642.626    17675.939   -36148.523   -29.302118   -1524.5878   -226.68349    72.269459    62.587188    36.056244      390.014   -311912.07 
     660    244.97328    163094.16     72.27044    72.270441    36.056734          120    19541.059    18068.042   -35752.178   -75.885789   -1540.5808    62.113869     72.27044    62.588038    36.056734    618.97405    -311911.8 
     670    246.43772    163100.97    72.271446    72.271446    36.057235          120    18872.554      19200.5   -35211.069    35.100289   -1687.1069    200.14216    72.271446    62.588908    36.057235    953.99487    -311916.8 
     680     245.6224    163108.12    72.272502    72.272502    36.057762          120    18140.546    20076.395   -35201.457    -70.40426   -1737.6036    447.98928    72.272502    62.589823    36.057762    1005.1616    -311917.4 
     690    242.41787    163115.62     72.27361    72.273611    36.058315          120    17767.122    20115.133   -35930.146     389.9738   -1792.1491    500.01959     72.27361    62.590783    36.058315    650.70294   -311913.65 
     700    244.73067    163123.27    72.274739    72.274739    36.058878          120    17046.751    19896.572    -36362.45    635.89131   -2298.4426    877.82132    72.274739     62.59176    36.058878    193.62439   -311919.99 
     710    242.39853     163130.8    72.275852    72.275853    36.059434          120    16827.755    19338.585   -35827.835    359.41576   -2644.9574    802.25338    72.275852    62.592725    36.059434    112.83542   -311916.72 
     720    241.61685    163138.15    72.276937    72.276938    36.059975          120    17295.384     18152.48   -35968.181    19.532607   -2477.6178   -284.38249    72.276937    62.593665    36.059975    -173.4391   -311916.33 
     730    242.13296    163145.17    72.277973    72.277974    36.060492          120    17326.571    17806.661   -36093.768   -178.88041   -2656.2752   -295.49382    72.277973    62.594561    36.060492   -320.17872   -311917.83 
     740    241.93191    163151.77    72.278949    72.278949    36.060978          120    17725.021    17783.973   -36129.963   -142.61355   -2155.9053   -26.955554    72.278949    62.595406    36.060978   -206.98956   -311917.95 
     750    241.60321    163158.02     72.27987    72.279871    36.061438          120    17568.332    18068.388   -36564.035    70.474731   -1192.4022   -273.71246     72.27987    62.596205    36.061438   -309.10478   -311917.94 
     760    242.55806    163163.84    72.280731    72.280731    36.061868          120    16695.725    17742.115   -36305.577    28.681634   -1336.6981   -498.13953    72.280731    62.596949    36.061868   -622.57896    -311919.7 
     770    242.74708    163169.14    72.281513    72.281514    36.062258          120    17628.371    17863.036   -36272.027   -53.366028   -2578.2169    213.91343    72.281513    62.597627    36.062258   -260.20686   -311919.22 
     780    243.31966    163174.07    72.282241    72.282241    36.062621          120    17686.974    17045.125   -36107.053   -556.11978     -2559.77    212.38206    72.282241    62.598257    36.062621   -458.31817   -311919.92 
     790    245.01238    163178.52    72.282899    72.282899    36.062949          120    16564.849    16535.642   -36402.751   -104.58934   -2503.4128    702.41635    72.282899    62.598827    36.062949   -1100.7531   -311922.52 
     800    243.94004    163182.17    72.283437    72.283438    36.063218          120    16563.297    16204.693   -37786.027   -150.97427   -2323.2351    814.81099    72.283437    62.599294    36.063218   -1672.6787    -311919.1 
     810    241.79127    163184.72    72.283814    72.283815    36.063406          120    16836.182    16243.704   -37678.728   -215.86652   -1850.1434    320.72385    72.283814     62.59962    36.063406   -1532.9472   -311913.39 
     820    244.17345    163186.26    72.284041    72.284041    36.063519          120    17097.072    16388.297   -36815.616    555.27623    -1547.034    254.07232    72.284041    62.599816    36.063519   -1110.0823   -311916.74 
     830    245.67525    163187.07    72.284161    72.284162    36.063579          120    17230.132    16967.138   -35635.932    168.64534    -2002.195    817.99224    72.284161     62.59992    36.063579   -479.55414   -311917.78 
     840    245.32336    163187.55    72.284231    72.284232    36.063614          120     17565.36     17678.08    -35914.54    166.86314   -2611.3541    762.58818    72.284231    62.599981    36.063614   -223.70031   -311915.07 
     850    244.23335    163187.84    72.284275    72.284275    36.063636          120    17561.209    17469.241   -36785.272    427.18373   -2711.3757    396.98493    72.284275    62.600019    36.063636   -584.94055   -311910.92 
     860    248.53047    163187.77    72.284264    72.284265    36.063631          120    17183.613    16909.077   -36666.215    342.80225   -2291.0265     369.0069    72.284264     62.60001    36.063631   -857.84159   -311916.72 
     870     249.9101    163187.21    72.284181    72.284182    36.063589          120     17392.48    17455.578   -36254.496     220.2775   -2623.3187    427.57315    72.284181    62.599938    36.063589   -468.81248   -311917.24 
     880    247.75073    163186.41    72.284063    72.284063     36.06353          120    18353.058    18493.104   -35820.252    270.02665   -2355.1175    432.87069    72.284063    62.599835     36.06353    341.97012   -311911.12 
     890    249.27391    163185.79    72.283972    72.283973    36.063485          120    18392.333    18945.383   -36060.196    196.59207   -1909.6542    1087.8224    72.283972    62.599757    36.063485    425.84008    -311911.5 
     900    249.33864    163185.47    72.283924    72.283925    36.063461          120    18539.363    18681.115   -35674.452    526.67508   -2002.6453    989.81341    72.283924    62.599715    36.063461    515.34211   -311908.79 
     910    249.26575    163185.46    72.283924    72.283924    36.063461          120    18515.149    18824.225   -36033.552    548.37555   -2248.7447    323.49542    72.283924    62.599715    36.063461    435.27379   -311906.34 
     920    251.06353    163185.72    72.283962    72.283963     36.06348          120    18278.103    19192.761   -36460.944    377.71385   -2202.2284    777.71296    72.283962    62.599748     36.06348    336.63999   -311907.26 
     930    249.92164    163186.18     72.28403    72.284031    36.063514          120    18313.922    19255.705   -36419.303    846.47955   -1890.3375   -213.64399     72.28403    62.599807    36.063514    383.44132    -311902.9 
     940    251.58183    163186.86     72.28413    72.284131    36.063564          120    17670.099    19376.326   -35806.048    849.32856    -2311.255    -833.2341     72.28413    62.599894    36.063564    413.45898   -311903.32 
     950    251.35013    163187.79    72.284267    72.284268    36.063632          120    17586.903    20039.819    -35960.56    178.86911   -2438.7243   -864.65786    72.284267    62.600012    36.063632    555.38732   -311900.43 
     960    253.42661       163189    72.284446    72.284446    36.063721          120    18618.055    19240.297   -36657.491    25.867037   -1921.6736   -162.00395    72.284446    62.600167    36.063721    400.28687   -311902.63 
     970    253.16667    163190.44    72.284658    72.284658    36.063827          120    18620.949    18683.451   -35863.106    383.28491   -1674.1334    -120.6223    72.284658    62.600351    36.063827    480.43132   -311899.88 
     980    255.56155    163192.12    72.284906    72.284906    36.063951          120    18329.971    18079.685   -35663.492    409.23679    -2318.671    878.92715    72.284906    62.600565    36.063951    248.72153   -311903.34 
     990    253.58884    163193.92    72.285172    72.285172    36.064083          120    18256.106    17873.619   -35627.571    730.59802     -2272.72    639.99913    72.285172    62.600796    36.064083    167.38473    -311897.6 
    1000    255.06368    163195.76    72.285444    72.285445    36.064219          120    17738.176    18620.224       -36045    450.73668   -2180.5353     706.5843    72.285444    62.601032    36.064219     104.4671   -311898.31 
    1010    255.32342    163197.65    72.285722    72.285723    36.064358          120    17708.738    19029.478   -35752.792    88.325608     -1479.79    917.17628    72.285722    62.601272    36.064358     328.4745   -311897.15 
    1020    254.47418    163199.65    72.286018    72.286019    36.064506          120    18229.369    18675.733   -36088.826    63.301766   -1885.3892    826.53503    72.286018    62.601529    36.064506    272.09176   -311894.54 
    1030    257.30854    163201.72    72.286324    72.286324    36.064658          120    17387.146    18593.236   -37284.418    297.92945    -2483.502    328.79616    72.286324    62.601793    36.064658   -434.67849   -311899.02 
    1040    257.77698    163203.49    72.286586    72.286586    36.064789          120    16783.931    18023.877   -36787.583    260.10471   -2787.1229   -340.11198    72.286586     62.60202    36.064789   -659.92522   -311898.67 
    1050    255.72577    163204.83    72.286783    72.286784    36.064887          120    17834.039    17998.938    -37159.27    832.86903   -2746.0345    7.4060046    72.286783    62.602191    36.064887   -442.09764   -311894.71 
    1060    257.24287    163205.87    72.286936    72.286937    36.064964          120    18362.271    18143.284   -36237.498    1015.3291   -1738.8317    105.23129    72.286936    62.602324    36.064964    89.352524   -311897.33 
    1070    255.55912    163206.93    72.287092    72.287093    36.065042          120     18241.41    19021.175   -35731.605    830.46225   -1465.5424    685.28964    72.287092    62.602459    36.065042    510.32648   -311894.08 
    1080    256.66512    163208.21    72.287282    72.287282    36.065136          120    17736.435      18633.7   -36271.127    963.12961   -883.54772    641.43505    72.287282    62.602623    36.065136    33.002706   -311896.71 
    1090    257.19844     163209.5    72.287473    72.287474    36.065231          120    17613.186    18305.717   -36137.593    847.38572   -1863.7382    319.02249    72.287473    62.602789    36.065231   -72.896617   -311898.25 
    1100    256.06588    163210.71    72.287652    72.287652    36.065321          120    17116.599    18302.361   -35999.279    658.22047   -3019.3716    386.80132    72.287652    62.602943    36.065321   -193.43999   -311897.07 
    1110    255.38288     163211.8    72.287812    72.287812      36.0654          120    17423.889    18860.874   -36292.772    477.84708   -2277.5625    375.52378    72.287812    62.603082      36.0654   -2.6695605   -311896.81 
    1120    254.59711    163212.87     72.28797     72.28797    36.065479          120    18598.954    18688.083   -35883.647    548.91614   -2508.1144    362.64969     72.28797    62.603219    36.065479    467.79631   -311896.16 
    1130    256.32674    163214.17    72.288162    72.288162    36.065575          120    18041.629    19144.342   -35194.233    362.74644   -2893.4372     476.5526    72.288162    62.603385    36.065575    663.91281   -311900.62 
    1140    256.29401    163215.79    72.288401    72.288402    36.065694          120    17319.808    18751.067   -35486.176    393.41405   -3438.3268    651.03517    72.288401    62.603592    36.065694    194.89991   -311902.45 
    1150    254.91226     163217.5    72.288654    72.288654    36.065821          120    17616.428    18169.724   -35536.406    177.05419    -2458.666    1153.5736    72.288654    62.603811    36.065821    83.248461   -311901.67 
    1160    254.62821    163219.24     72.28891     72.28891    36.065948          120    17464.795    18727.121   -35119.363    354.88209   -2477.7027    1061.6636     72.28891    62.604033    36.065948    357.51781   -311903.77 
    1170    255.73761    163221.13    72.289189     72.28919    36.066088          120    17575.911    18735.174   -35256.262    218.80674   -3055.3163    489.24901    72.289189    62.604275    36.066088    351.60753   -311907.83 
    1180    251.44386    163223.19    72.289493    72.289494    36.066239          120    18186.596    18311.176   -35362.338    470.58702   -2849.8743    464.89096    72.289493    62.604538    36.066239    378.47799   -311902.19 
    1190    253.00994    163225.44    72.289826    72.289826    36.066405          120    18857.791    19117.968   -35664.757    472.05382   -2589.0722   -163.89149    72.289826    62.604826    36.066405    770.33379   -311907.23 
    1200    252.55544    163228.07    72.290214    72.290215    36.066599          120    18839.482    19586.855   -36234.466    460.84973   -2548.9217    -323.7042    72.290214    62.605162    36.066599    730.62379   -311908.86 
    1210    248.48884    163231.05    72.290654    72.290654    36.066818          120     18885.88    19304.762   -36888.139     559.9557   -2103.8654   -288.22567    72.290654    62.605543    36.066818    434.16765   -311903.93 
    1220    251.02622    163234.22    72.291122    72.291122    36.067052          120    19066.936     19020.51   -36718.505    229.01781   -1662.3801   -444.08442    72.291122    62.605948    36.067052    456.31377    -311911.8 
    1230     251.2472    163237.57    72.291616    72.291616    36.067298          120    18833.444     19092.33   -36980.764    739.16489   -2378.7867   -50.707977    72.291616    62.606376    36.067298    315.00344   -311914.77 
    1240    247.07544    163241.02    72.292126    72.292127    36.067553          120    19042.741    18504.877   -36719.593    819.72546   -2886.9137    224.97551    72.292126    62.606818    36.067553    276.00835   -311909.43 
    1250    248.51906    163244.52    72.292643    72.292643    36.067811          120    18707.087    17848.308   -36662.948    851.35644   -3286.0811   -213.90191    72.292643    62.607266    36.067811   -35.851054   -311914.68 
    1260    248.25987    163247.92    72.293144    72.293145    36.068061          120    18075.981    18147.002   -36816.518    746.47923   -3539.6025    89.982407    72.293144      62.6077    36.068061   -197.84494   -311916.29 
    1270    245.03502    163251.09    72.293612    72.293612    36.068294          120    17614.532    18089.888   -37275.072    748.27304   -3134.8039    209.13334    72.293612    62.608105    36.068294   -523.55033   -311912.04 
    1280    246.36812    163253.88    72.294024    72.294024      36.0685          120    17925.798    17889.209   -36713.035    692.11384   -2285.8839    103.57783    72.294024    62.608462      36.0685   -299.34281   -311916.35 
    1290    246.12398    163256.39    72.294395    72.294395    36.068685          120    17393.841    18106.641   -36510.014    732.71247   -1913.3088    197.00505    72.294395    62.608783    36.068685    -336.5105    -311917.6 
    1300    245.18414    163258.62    72.294723    72.294724    36.068849          120    16919.108    18776.712   -36974.401    532.92961    -2285.492    594.94479    72.294723    62.609068    36.068849   -426.19376   -311917.74 
    1310    246.13617    163260.53    72.295006    72.295007     36.06899          120    17068.062    18571.763    -36673.41    245.58034   -2820.0418     169.4785    72.295006    62.609313     36.06899   -344.52835   -311921.32 
    1320    243.75525    163262.16    72.295247    72.295247     36.06911          120    16926.377    18204.017   -37144.608    101.47089   -2763.2441   -496.94692    72.295247    62.609521     36.06911    -671.4045   -311918.42 
    1330    246.09906    163263.34     72.29542    72.295421    36.069196          120      16730.3    17646.208   -36765.291   -47.037373   -2533.3389   -542.64346     72.29542    62.609671    36.069196   -796.26119   -311924.41 
    1340    245.00565       163264    72.295517    72.295518    36.069245          120    16504.425    17941.717   -36815.189   -53.128704   -2803.7269   -270.98571    72.295517    62.609755    36.069245   -789.68227   -311923.08 
    1350     243.3566    163264.19    72.295545    72.295546    36.069259          120    16871.761    18352.254   -36084.623   -197.42171   -2659.1254    118.19778    72.295545    62.609779    36.069259   -286.86932    -311920.5 
    1360    245.21236    163264.16    72.295541    72.295542    36.069257          120    16730.682    18146.073   -35371.489    117.96109   -2070.6865     130.6299    72.295541    62.609776    36.069257   -164.91152   -311924.63 
    1370    242.86604    163264.04    72.295524    72.295524    36.069248          120    17709.411    18238.665   -35737.723    101.08251   -2070.2783    7.7414662    72.295524    62.609761    36.069248    70.117633   -311920.82 
    1380    244.52841    163263.92    72.295506    72.295506    36.069239          120    18047.446    18005.288   -36771.402   -11.971415   -2080.8924   -9.4127618    72.295506    62.609745    36.069239   -239.55592   -311924.33 
    1390    244.38374    163263.66    72.295467    72.295468     36.06922          120    17519.365    18043.966   -36843.079   -26.800628   -1885.0177    180.63083    72.295467    62.609712     36.06922   -426.58273   -311923.65 
    1400    244.10622    163263.14     72.29539    72.295391    36.069181          120    16946.306    17923.613   -36304.754    63.350849   -1926.9875   -96.011858     72.29539    62.609645    36.069181   -478.27835   -311923.09 
    1410    244.23594    163262.36    72.295275    72.295276    36.069124          120    17617.389    18123.054   -36351.005   -132.72065   -2526.4852    405.15716    72.295275    62.609546    36.069124   -203.52093    -311923.5 
    1420    245.18864    163261.52    72.295152    72.295152    36.069062          120    18493.259    18798.674   -35029.601    271.73647   -2423.7673    915.87166    72.295152    62.609439    36.069062    754.11067   -311924.45 
    1430    245.30281    163261.14    72.295095    72.295096    36.069034          120    18863.781    18814.174    -34396.29    738.90194   -2467.9677    538.96604    72.295095     62.60939    36.069034    1093.8884   -311923.84 
    1440    244.51032    163261.39    72.295132    72.295132    36.069053          120    18455.717    18367.754   -35483.811     750.1381   -2487.8647    81.994284    72.295132    62.609421    36.069053    446.55323   -311921.27 
    1450    247.00963    163261.91     72.29521     72.29521    36.069091          120    17752.198    18163.691   -36408.936    -91.16862   -2027.2005    147.03467     72.29521    62.609489    36.069091   -164.34898   -311924.52 
    1460    247.17964    163262.32     72.29527    72.295271    36.069122          120    17414.059    17872.579   -37339.048   -299.67354    -2343.582    41.453917     72.29527    62.609541    36.069122   -684.13678   -311923.42 
    1470    246.40574    163262.31    72.295268    72.295269    36.069121          120    17356.072    17870.776   -37810.934    136.29987   -2563.4365     397.5447    72.295268     62.60954    36.069121   -861.36202   -311920.14 
    1480    247.39977    163261.83    72.295197    72.295197    36.069085          120    18110.255    17658.354   -36380.773    273.54466   -1735.9875    1130.8937    72.295197    62.609478    36.069085    -204.0547   -311920.54 
    1490    246.62452    163261.19    72.295102    72.295103    36.069038          120    17883.923    18518.571   -36670.188      525.732   -1752.2075    708.08167    72.295102    62.609396    36.069038   -89.231371    -311917.2 
    1500     246.9588    163260.52    72.295004    72.295005    36.068989          120    17716.077     18831.47   -36222.373    357.93031   -2201.3751    618.23874    72.295004    62.609311    36.068989    108.39121    -311916.5 
    1510    248.71714    163259.94    72.294918    72.294919    36.068946          120    17517.567    18590.949   -35507.394   -110.49329    -1700.575    666.11014    72.294918    62.609237    36.068946    200.37387   -311917.67 
    1520    248.90149    163259.47    72.294849     72.29485    36.068911          120    17067.814    18238.839   -35597.883   -307.68492   -1777.8202    912.55876    72.294849    62.609176    36.068911    -97.07636   -311916.16 
    1530     249.6365       163259    72.294779     72.29478    36.068877          120    17955.738     18098.43   -35395.463   -101.93727   -2546.4864    1055.6616    72.294779    62.609116    36.068877    219.56835   -311915.41 
    1540    249.76269    163258.62    72.294724    72.294725    36.068849          120    17934.803    18016.985   -36252.573    530.75353   -2254.4716    488.49784    72.294724    62.609068    36.068849   -100.26182   -311913.72 
    1550    249.99641    163258.23    72.294666    72.294666     36.06882          120    18080.251    18566.444   -36443.911    381.87982   -2397.8172    152.42229    72.294666    62.609018     36.06882    67.594644   -311912.37 
    1560    250.50285    163257.88    72.294614    72.294615    36.068794          120    18251.741    19331.858   -36415.876    98.670522   -1923.5529    400.55269    72.294614    62.608973    36.068794    389.24101   -311911.09 
    1570    251.65232    163257.79    72.294602    72.294602    36.068788          120    18611.458    19390.833   -35537.929   -21.844454   -1579.7663    809.06961    72.294602    62.608962    36.068788    821.45425   -311911.68 
    1580    254.29671    163258.16    72.294656    72.294657    36.068815          120    18704.506    19099.714   -35925.718    480.39564   -1810.9085    906.43735    72.294656     62.60901    36.068815    626.16759   -311914.37 
    1590    251.54773    163258.93     72.29477    72.294771    36.068872          120    19081.775    18821.491    -35998.24    546.62181   -2005.9232    1301.1799     72.29477    62.609108    36.068872     635.0087   -311907.32 
    1600    252.19809     163260.1    72.294942    72.294942    36.068958          120    19459.011    18874.839     -35930.2    769.26917   -2149.5866    1332.6591    72.294942    62.609257    36.068958    801.21663   -311906.57 
    1610    253.12441    163261.75    72.295185    72.295185    36.069079          120    19324.817    19493.389   -35085.263    823.08901   -1659.3856    939.96997    72.295185    62.609467    36.069079    1244.3142   -311907.16 
    1620    254.28213     163264.1    72.295532    72.295533    36.069252          120    18745.299    19776.514   -34709.217    461.36136    -1458.743    645.21789    72.295532    62.609768    36.069252    1270.8653   -311907.55 
    1630    253.42576    163267.14    72.295982    72.295982    36.069477          120    18577.785    20237.842    -36373.04    360.33774    -1514.864    649.66956    72.295982    62.610157    36.069477    814.19572    -311905.1 
    1640    255.45633    163270.63    72.296496    72.296497    36.069733          120    18115.355    19799.422   -36352.229    464.51148    -1794.631   -74.694127    72.296496    62.610603    36.069733    520.84945   -311907.97 
    1650    256.01141    163274.34    72.297043    72.297044    36.070006          120    17916.854     19119.11   -36344.665   -247.80829   -2024.2356   -507.29653    72.297043    62.611077    36.070006    230.43292   -311908.22 
    1660    253.80791    163278.11    72.297601    72.297601    36.070284          120     17826.17    19054.749    -35981.27   -698.48036   -1681.5083   -230.48606    72.297601     62.61156    36.070284    299.88289   -311903.29 
    1670      256.814    163281.94    72.298166    72.298167    36.070566          120    17583.684    18714.924   -36619.554   -104.27844   -1993.3816    44.794823    72.298166    62.612049    36.070566   -106.98182   -311908.78 
    1680    253.08829    163285.62    72.298709     72.29871    36.070837          120    17049.021    18455.191   -36379.227    87.883913   -2693.5169    321.33845    72.298709     62.61252    36.070837    -291.6718   -311901.12 
    1690    253.35509    163289.08    72.299219    72.299219    36.071092          120    17458.988    18532.401   -35310.689    166.33571   -2578.7803    301.71135    72.299219    62.612961    36.071092    226.89985   -311901.31 
    1700    256.23175    163292.57    72.299734    72.299735    36.071349          120    18200.289     18340.49   -35085.944    64.916475   -2989.4961    273.94917    72.299734    62.613407    36.071349    484.94502   -311906.27 
    1710    255.89643     163296.2    72.300271    72.300271    36.071616          120    17460.917    18034.963   -36401.843   -201.73692   -2908.1928   -304.61525    72.300271    62.613872    36.071616   -301.98763   -311905.95 
    1720    255.58395    163299.61    72.300774    72.300775    36.071867          120    17659.434    17755.052   -37291.564   -379.23362   -2212.1731   -278.48926    72.300774    62.614308    36.071867   -625.69281    -311905.7 
    1730    256.24181    163302.57     72.30121    72.301211    36.072085          120    17646.156    18050.333   -37380.248    599.92125   -2668.0997   -457.95955     72.30121    62.614685    36.072085   -561.25311   -311907.69 
    1740    255.13552    163305.14     72.30159     72.30159    36.072274          120    18447.479    18142.881   -36031.464    543.72414   -2501.7827    85.684082     72.30159    62.615014    36.072274    186.29872   -311906.55 
    1750     256.0439    163307.73    72.301972    72.301973    36.072465          120     18523.13    18481.534   -35181.782    234.83317   -1486.5806   -65.630511    72.301972    62.615345    36.072465     607.6274    -311908.8 
    1760    254.92246     163310.6    72.302395    72.302395    36.072676          120    18465.928    18487.466   -35691.396    53.076436    -1422.563   -96.556909    72.302395    62.615711    36.072676    420.66608   -311908.14 
    1770      255.415    163313.67    72.302849    72.302849    36.072903          120    18203.386    18437.503   -35448.774    -476.0078    -2156.132   -377.52114    72.302849    62.616104    36.072903    397.37183   -311910.44 
    1780    251.57112    163316.91    72.303327    72.303328    36.073141          120    18263.698    18074.032   -35386.474   -676.53565   -2334.8339   -648.94449    72.303327    62.616519    36.073141    317.08535   -311904.13 
    1790    254.64857    163320.26    72.303821    72.303822    36.073388          120    17882.778     18231.08   -35849.525   -235.27153   -2004.6611   -112.26443    72.303821    62.616947    36.073388    88.110741   -311912.28 
    1800    251.37362    163323.62    72.304317    72.304317    36.073635          120    18520.694    18590.307   -36042.227   -491.32954   -2056.7646    51.307512    72.304317    62.617376    36.073635    356.25775    -311907.9 
    1810    250.61073    163327.06    72.304825    72.304826    36.073889          120    18440.822    17662.068   -36027.394   -1038.7674    -1266.352    349.22746    72.304825    62.617816    36.073889    25.165044    -311908.3 
    1820    251.77549    163330.46    72.305326    72.305327    36.074139          120    18064.947    17687.184    -36011.67   -399.04828   -1748.0592   -57.536816    72.305326     62.61825    36.074139   -86.513053    -311912.5 
    1830    250.59741    163333.73    72.305809     72.30581     36.07438          120     18276.26    17732.121    -36099.57   -538.87251   -2132.3937    331.58497    72.305809    62.618668     36.07438    -30.39606   -311911.83 
    1840    249.69133    163336.89    72.306275    72.306275    36.074612          120    18070.393     18298.03   -36357.008    -329.7265   -1569.6968    736.17371    72.306275    62.619071    36.074612    3.8051238   -311911.84 
    1850    248.17324    163339.99    72.306733    72.306733     36.07484          120    18015.932    19097.801   -36050.197    295.88996   -1924.2929    1466.7711    72.306733    62.619468     36.07484    354.51243    -311910.6 
    1860    249.57147    163343.21    72.307208    72.307208    36.075077          120    18457.635     18863.84   -36422.294    592.54949   -1973.5732    1460.3479    72.307208     62.61988    36.075077    299.72705   -311915.25 
    1870    250.16881    163346.52    72.307696    72.307697    36.075321          120    18186.519    18881.507   -36157.503    74.862926   -1802.7893    1321.8208    72.307696    62.620302    36.075321    303.50785   -311918.83 
    1880    245.45218    163349.96    72.308203    72.308204    36.075574          120    18331.447     19404.12   -36056.895   -267.62322   -2037.8435     1050.784    72.308203    62.620741    36.075574    559.55714   -311911.88 
    1890    248.39528    163353.64    72.308747    72.308747    36.075845          120    18377.845    19208.433   -36272.661    17.348327   -1752.4698    496.50579    72.308747    62.621212    36.075845    437.87242   -311919.59 
    1900    248.30717     163357.5    72.309316    72.309317    36.076129          120    17688.717    18631.001   -36081.496    257.38109   -910.02024    222.59623    72.309316    62.621706    36.076129    79.407378   -311920.73 
    1910    248.40171    163361.31    72.309879    72.309879     36.07641          120    17426.657    18465.852   -36802.371    283.18267   -1112.9139     517.8687    72.309879    62.622193     36.07641    -303.2873   -311922.16 
    1920     247.7595     163364.9    72.310408    72.310409    36.076674          120     18038.35    18531.026   -36367.076    195.14032   -1108.7085    703.51111    72.310408    62.622651    36.076674    67.433166   -311922.32 
    1930    247.06928    163368.35    72.310918    72.310918    36.076928          120    17490.325    17643.876   -37272.082    129.33669   -684.00392    866.15571    72.310918    62.623092    36.076928   -712.62697   -311922.28 
    1940    245.49925    163371.34    72.311358    72.311359    36.077148          120    16908.945    17707.739   -36865.677   -262.30496    -869.9847     1491.277    72.311358    62.623474    36.077148   -749.66404   -311920.38 
    1950    248.64012    163373.78    72.311719    72.311719    36.077328          120    17166.208    17474.152   -36814.382    133.04856   -1402.8812    748.50183    72.311719    62.623786    36.077328   -724.67411   -311927.71 
    1960     244.7289    163375.73    72.312006    72.312007    36.077471          120    17317.757    17197.625   -36473.225    32.145757   -1800.5882   -430.95376    72.312006    62.624035    36.077471   -652.61467   -311921.37 
    1970    243.58044    163377.22    72.312226    72.312227    36.077581          120    16933.453    17230.377    -36487.39    173.64455   -2245.8016   -81.015116    72.312226    62.624225    36.077581      -774.52   -311919.78 
    1980    244.20476     163378.2    72.312371    72.312371    36.077653          120     16995.08    17111.496   -36640.297   -132.63391   -2251.1133    298.05043    72.312371    62.624351    36.077653   -844.57376    -311921.3 
    1990    245.60911    163378.65    72.312437    72.312437    36.077686          120     17195.53    17464.016   -37092.983    83.378291   -2345.0184     823.8035    72.312437    62.624408    36.077686   -811.14555   -311924.69 
    2000    244.39253    163378.59    72.312427    72.312428    36.077681          120    16910.696    17907.598   -36603.713   -831.04982   -1894.0931    324.09624    72.312427      62.6244    36.077681    -595.1395   -311922.39 
    2010    245.26074    163378.19    72.312369     72.31237    36.077652          120    17471.317    18803.453   -35423.874   -332.56976   -1284.9577    201.69609    72.312369    62.624349    36.077652     283.6318   -311924.25 
    2020    245.19541    163377.96    72.312334    72.312335    36.077635          120    17694.959    19062.271   -34820.868    620.70011   -1144.0666    331.88455    72.312334    62.624319    36.077635    645.45394   -311923.47 
    2030    246.22421    163378.09    72.312354    72.312354    36.077645          120     17366.06    18374.693   -35348.764     508.8957   -871.16948    497.51375    72.312354    62.624336    36.077645    130.66295   -311925.06 
    2040    245.58274    163378.28    72.312382    72.312383    36.077659          120    17295.351     17380.36   -36428.724    670.46085   -1226.5208    924.46696    72.312382    62.624361    36.077659    -584.3375    -311923.4 
    2050    244.18329    163378.13     72.31236     72.31236    36.077648          120    17650.541    16501.857   -37101.096    153.48863   -1216.9552    767.26342     72.31236    62.624341    36.077648   -982.89911   -311919.97 
    2060    247.69187    163377.35    72.312245    72.312246    36.077591          120    16949.815    16025.183   -37373.541   -145.01529   -1663.2165     650.5204    72.312245    62.624242    36.077591   -1466.1811   -311925.61 
    2070     243.0935    163375.75    72.312009    72.312009    36.077473          120    16948.309    16567.072   -36918.155    132.78387   -1453.2423    771.72184    72.312009    62.624037    36.077473   -1134.2581   -311915.54 
    2080    247.59888    163373.47    72.311673    72.311673    36.077305          120    17207.441    17249.908    -37000.42    514.19201   -973.30988    373.16699    72.311673    62.623746    36.077305   -847.69058   -311922.68 
    2090    249.05011    163370.72    72.311267    72.311268    36.077103          120     17333.55    17497.108   -36961.903    950.92192   -1210.5185   -95.736251    72.311267    62.623395    36.077103   -710.41517    -311924.3 
    2100    246.07854    163367.56    72.310801    72.310801     36.07687          120    16068.075    17647.042   -37396.645    810.02825   -2040.0558    143.93642    72.310801    62.622991     36.07687   -1227.1761   -311917.37 
    2110    247.27189    163363.76    72.310239     72.31024     36.07659          120    16833.229    17123.322   -37387.712     255.7973   -2533.7762   -80.589962    72.310239    62.622505     36.07659   -1143.7202   -311917.94 
    2120     249.2297    163359.36     72.30959     72.30959    36.076266          120    17444.358    17634.841   -36970.133    283.66081   -2847.1371   -412.94109     72.30959    62.621942    36.076266   -630.31132   -311919.57 
    2130    250.01684    163354.68    72.308899      72.3089    36.075921          120    17569.151     18137.77   -36242.458    462.08521   -2614.3577    69.740332    72.308899    62.621344    36.075921   -178.51233    -311919.9 
    2140    248.98824    163350.03    72.308214    72.308215     36.07558          120    18387.702    18781.144     -35118.9    171.17623   -1585.7789     523.3148    72.308214    62.620751     36.07558    683.31533   -311916.23 
    2150      249.287    163345.86    72.307598    72.307599    36.075272          120    18426.162    18998.436    -35119.23    208.74989   -1279.5208     655.6248    72.307598    62.620217    36.075272      768.456   -311914.87 
    2160    251.52945    163342.23    72.307062    72.307063    36.075005          120    18354.726    19263.256   -36171.878    26.220642   -1443.5978    754.44249    72.307062    62.619753    36.075005    482.03487   -311917.41 
    2170    249.87597    163338.97    72.306583    72.306583    36.074765          120    17957.245    18678.315   -36352.403    163.57481   -1480.2582    912.62583    72.306583    62.619338    36.074765    94.385759   -311912.76 
    2180    249.52657     163335.9    72.306128    72.306129    36.074539          120    17849.131    18359.349   -35508.583   -401.04595   -1966.7318    185.79603    72.306128    62.618945    36.074539     233.2987   -311910.15 
    2190    253.11602    163333.01    72.305703    72.305704    36.074327          120    18259.184    18188.299    -35852.56   -645.82144   -1368.1567   -37.050434    72.305703    62.618576    36.074327    198.30789   -311915.54 
    2200    252.85383    163330.33    72.305307    72.305307    36.074129          120    18374.599    17914.244   -36016.014   -705.68396   -1286.1651    296.55597    72.305307    62.618233    36.074129    90.942911   -311912.92 
    2210    250.21476    163327.78     72.30493    72.304931    36.073941          120    18316.541    18162.651   -35857.736   -596.24953   -1659.6918    241.47848     72.30493    62.617907    36.073941    207.15218   -311906.46 
    2220    254.05601    163325.37    72.304575    72.304576    36.073764          120    17789.813    17643.214   -35753.831    42.571825   -2040.7966    665.70737    72.304575    62.617599    36.073764   -106.93473   -311912.78 
    2230    253.33255    163323.01    72.304226    72.304227     36.07359          120    17860.626    18200.279   -36092.613    552.30899   -2871.2737    560.26301    72.304226    62.617297     36.07359   -10.569547   -311910.24 
    2240    252.85634    163320.66     72.30388    72.303881    36.073417          120    17800.656    17733.243   -36845.155   -1.2508664   -2861.7276    808.77158     72.30388    62.616998    36.073417   -437.08501   -311908.71 
    2250    253.14899    163318.13    72.303506    72.303507    36.073231          120    17597.808    17674.862   -36397.192    -457.7872   -1855.9042    1188.8678    72.303506    62.616674    36.073231   -374.84054   -311908.35 
    2260    252.20708    163315.41    72.303105    72.303105     36.07303          120    17325.149      17903.6   -36120.999    -475.8068   -1679.1127    906.69957    72.303105    62.616326     36.07303   -297.41671   -311905.16 
[...]
   20650    251.29785    163551.74    72.337964    72.337965    36.090422          120    18411.313    17798.654    -38440.93   -538.44463   -1813.4827     51.65283    72.337964    62.646515    36.090422   -743.65422    -311945.4 
   20660    249.93087    163549.08    72.337573    72.337574    36.090227          120    18346.443    18391.498   -37512.961   0.37416864   -1319.8797   -177.16679    72.337573    62.646177    36.090227   -258.34021   -311942.99 
   20670    251.51192    163546.27    72.337158    72.337159     36.09002          120    18780.062    18678.738   -36470.633    31.244332   -1669.2944    -62.20776    72.337158    62.645818     36.09002    329.38906   -311946.27 
   20680    249.70904    163543.67    72.336775    72.336776    36.089829          120    19227.075    18844.331   -35437.228   -267.46422   -1404.2637    559.27192    72.336775    62.645486    36.089829    878.05943   -311943.09 
   20690    249.23323    163541.61    72.336471    72.336472    36.089677          120    19379.828    18490.731   -35138.034    -189.4019   -1432.7267    1231.0575    72.336471    62.645222    36.089677     910.8413   -311942.19 
   20700    249.99342     163540.1    72.336248    72.336249    36.089566          120     19585.75    17522.829    -36093.51   -451.34762   -1647.6837    506.58778    72.336248    62.645029    36.089566    338.35632   -311943.86 
   20710    251.88147     163538.8    72.336057    72.336057    36.089471          120    18905.951    16945.492   -36520.719   -471.11954   -1663.2999    186.95159    72.336057    62.644863    36.089471   -223.09185    -311947.9 
   20720    250.41378    163537.41    72.335852    72.335852    36.089368          120     18501.64    16999.111   -36411.222   -339.91395   -1976.9855    250.09512    72.335852    62.644686    36.089368   -303.49015   -311945.57 
   20730    248.92302    163535.89    72.335627    72.335628    36.089256          120    18569.105    18272.156   -36613.101   -458.72126   -1685.8279    908.98509    72.335627    62.644492    36.089256    76.053442   -311943.13 
   20740    252.33075    163534.39    72.335406    72.335407    36.089146          120     18500.73      18151.7   -36763.329   -361.95169   -1315.1861    273.03724    72.335406      62.6443    36.089146   -36.966438   -311950.12 
   20750    249.07786    163532.89    72.335185    72.335186    36.089036          120    17965.297     18220.47   -36402.931   -309.55639   -1120.3428    356.74521    72.335185    62.644109    36.089036   -72.387822    -311944.2 
   20760    251.07249    163531.33    72.334955    72.334956    36.088921          120    17874.372    17811.617   -36726.675   -130.08102   -1381.6237   -23.445593    72.334955     62.64391    36.088921   -346.89506   -311948.69 
   20770    248.37453    163529.61    72.334702    72.334702    36.088794          120    18129.723    18514.202    -36491.77   -119.92175   -1230.1897    144.16296    72.334702     62.64369    36.088794    50.718461   -311944.21 
   20780    249.58557    163527.92    72.334452    72.334453     36.08867          120    18746.991    18366.707   -36503.189   -72.811498   -817.39392    57.785278    72.334452    62.643474     36.08867    203.50324    -311946.9 
   20790    249.76098    163526.37    72.334223    72.334224    36.088556          120    18720.265    18514.471   -36425.119    211.54978   -930.57515   -51.127013    72.334223    62.643276    36.088556    269.87253   -311947.22 
   20800    249.68621    163525.03    72.334026    72.334027    36.088458          120    19207.339     18933.08   -36158.871   -114.80555   -1846.5757    262.11892    72.334026    62.643105    36.088458    660.51597   -311947.55 
   20810    249.37491    163524.05    72.333882    72.333883    36.088386          120    18595.921    18003.773   -36575.357   -408.11823    -1445.519    94.568664    72.333882     62.64298    36.088386    8.1122035   -311947.68 
   20820    249.68434    163523.07    72.333738    72.333738    36.088313          120    17509.362    17344.605    -37601.32   -151.36252   -1199.6239    1022.3906    72.333738    62.642855    36.088313    -915.7842   -311948.51 
   20830    249.05325    163521.56    72.333514    72.333515    36.088202          120    17086.341    17166.298   -37997.952    258.36869   -1060.4887    812.32792    72.333514    62.642661    36.088202   -1248.4377   -311947.62 
   20840    248.99089    163519.35    72.333188    72.333189    36.088039          120    17736.133     18171.56   -37704.507     649.9049   -1070.7807    1133.1597    72.333188    62.642379    36.088039   -598.93798   -311947.54 
   20850    249.21542    163516.77    72.332808    72.332809     36.08785          120     18159.95     18322.48    -36871.87    284.44677   -1351.2989    872.66175    72.332808     62.64205     36.08785   -129.81344   -311947.52 
   20860    248.37639     163514.1    72.332415    72.332415    36.087654          120     18290.83    18413.041   -36905.478   -362.13094   -1143.9641   -45.071666    72.332415    62.641709    36.087654   -67.202335   -311946.38 
   20870     249.5173     163511.4    72.332017    72.332017    36.087455          120    18965.046    18309.585   -37177.026   -371.63046   -1120.9637    709.14279    72.332017    62.641365    36.087455    32.534953   -311948.59 
   20880    250.63038    163508.71     72.33162     72.33162    36.087257          120    18402.024    18471.029   -37444.484   -486.81116   -1086.8993    546.71941     72.33162    62.641021    36.087257   -190.47676   -311950.97 
   20890    247.43835    163505.94    72.331212    72.331213    36.087053          120    18518.307    18962.956    -37167.52   -305.06619   -705.18753     587.5872    72.331212    62.640668    36.087053    104.58121   -311944.96 
   20900    247.90124    163503.27    72.330817    72.330818    36.086857          120    18368.025    20052.682   -36804.331    375.24202   -419.82812    1262.5136    72.330817    62.640326    36.086857    538.79188   -311946.15 
   20910    249.49381    163500.91    72.330469     72.33047    36.086683          120    18653.168    19427.292   -36974.755     473.0885   -1232.4679    957.46259    72.330469    62.640025    36.086683    368.56855   -311949.51 
   20920    248.54599    163498.83    72.330164    72.330164     36.08653          120    19443.977    18755.006   -36119.422    161.07528   -2221.9852     1104.116    72.330164     62.63976     36.08653    693.18686    -311947.4 
   20930    250.27227    163497.19    72.329921    72.329922     36.08641          120    19012.453    18264.868   -35443.497   -200.16543   -1720.7441    1485.6065    72.329921     62.63955     36.08641    611.27479   -311950.61 
   20940    250.32274     163495.9    72.329731    72.329732    36.086315          120    18929.133    17487.522   -36229.346   -45.337849   -1243.4996    982.21851    72.329731    62.639386    36.086315    62.436446   -311950.77 
   20950    247.99085     163494.7    72.329554    72.329554    36.086226          120    18977.845     18346.58   -36503.136   -89.684962   -1618.6131    973.19762    72.329554    62.639232    36.086226    273.76303   -311945.57 
   20960     248.8474    163493.64    72.329398    72.329398    36.086148          120     18575.48    18509.222   -36782.564   -129.81943   -1348.8188    1350.6759    72.329398    62.639096    36.086148    100.71263   -311947.54 
   20970    250.34995    163492.65    72.329252    72.329252    36.086075          120    18844.793    18255.141   -37328.892   -102.31058   -1043.0897    1171.0711    72.329252     62.63897    36.086075   -76.319066   -311949.79 
   20980    248.20436    163491.61    72.329098    72.329099    36.085999          120    19061.056    17783.425   -37600.444   -345.47344   -1034.7645    1019.7719    72.329098    62.638837    36.085999   -251.98751   -311945.49 
   20990    248.92028    163490.46    72.328929    72.328929    36.085914          120    19521.275    18239.131   -37093.652   -497.29416   -639.47405    786.63037    72.328929     62.63869    36.085914    222.25148   -311946.54 
   21000    249.80671    163489.41    72.328773    72.328774    36.085837          120    19266.972    17865.112   -37094.763    385.54516   -827.06339     846.6742    72.328773    62.638556    36.085837    12.440152    -311948.1 
   21010    247.99512    163488.35    72.328617    72.328618    36.085759          120    18721.936    17506.782   -38074.281    239.44571   -1181.4158    623.81677    72.328617    62.638421    36.085759   -615.18751   -311943.92 
   21020    249.28808    163486.98    72.328415    72.328415    36.085658          120    19211.066    18122.607   -37232.626    359.20375   -1227.6164    838.09408    72.328415    62.638245    36.085658    33.682137   -311946.38 
   21030    250.98255    163485.63    72.328216    72.328217    36.085559          120    19536.516    18912.094   -36227.928    3.8018932   -1554.4492    1029.0852    72.328216    62.638073    36.085559    740.22726   -311948.92 
   21040    250.71281    163484.69    72.328077    72.328078     36.08549          120    19151.772    18383.493   -36241.891    -635.4788   -1569.0545    1048.8593    72.328077    62.637953     36.08549    431.12487   -311948.13 
   21050    250.16165    163484.06    72.327985    72.327985    36.085443          120    19439.683    18515.311    -36280.56   -310.37635   -2184.9283    730.36512    72.327985    62.637873    36.085443    558.14433   -311946.99 
   21060    248.90779    163483.76    72.327941    72.327942    36.085422          120    18952.844    18763.508   -36091.034    321.70969   -1857.2258    603.02263    72.327941    62.637835    36.085422    541.77253   -311944.45 
   21070    252.13585     163483.8    72.327947    72.327948    36.085424          120    18943.398    18317.473   -35844.314    599.05691   -1709.0694    975.89302    72.327947     62.63784    36.085424    472.18544   -311950.13 
   21080    248.74542    163484.16    72.327999       72.328    36.085451          120    19034.964    17965.239   -35580.388    117.94736   -1840.7333    1089.1837    72.327999    62.637885    36.085451    473.27169   -311943.97 
   21090    251.39278    163484.78    72.328091    72.328092    36.085496          120    19017.072    17823.973   -36346.372   -116.71393   -1504.4904    1328.9177    72.328091    62.637965    36.085496    164.89084   -311948.27 
   21100    247.75351    163485.55    72.328205    72.328205    36.085553          120    19261.227    18317.001   -35982.701   -613.58292   -1227.1541    1024.3049    72.328205    62.638063    36.085553    531.84224   -311940.93 
   21110     251.7994    163486.61    72.328361    72.328362    36.085631          120    19772.861    18071.794   -36393.819   -251.51151   -1441.9057    750.66626    72.328361    62.638199    36.085631    483.61228   -311948.13 
   21120    249.64025       163488    72.328565    72.328566    36.085733          120    19411.698    19033.469   -36114.101    31.835382    -1905.349    467.98289    72.328565    62.638376    36.085733    777.02198    -311943.7 
   21130    249.83055    163489.87    72.328842    72.328842    36.085871          120    19566.439    19659.104   -35521.537   -127.58691   -2151.5649    824.90014    72.328842    62.638615    36.085871    1234.6685   -311944.05 
   21140    252.24008    163492.44     72.32922    72.329221     36.08606          120    19488.412     19235.37   -35725.199   -811.21041   -2024.5098    782.12395     72.32922    62.638943     36.08606    999.52789   -311947.77 
   21150    249.39998    163495.65    72.329695    72.329695    36.086296          120    19578.743    19424.815   -35356.773   -295.73537   -1757.3783    1341.1514    72.329695    62.639354    36.086296     1215.595   -311942.12 
   21160    249.85355    163499.54    72.330269    72.330269    36.086583          120    19548.617    19552.393   -36614.362    117.97697   -2322.5757    1574.0081    72.330269    62.639851    36.086583    828.88257   -311942.84 
   21170    253.51409    163503.95    72.330917    72.330918    36.086906          120    19689.374    18882.461   -36315.454    877.38448   -2219.1218    992.71078    72.330917    62.640413    36.086906    752.12712    -311949.4 
   21180    250.55721    163508.77    72.331628    72.331629    36.087261          120    18885.242    18483.686   -36477.611    105.87458   -2086.3009    473.08021    72.331628    62.641028    36.087261    297.10552   -311944.29 
   21190    251.78764    163513.78    72.332367    72.332367     36.08763          120    18677.367    18687.946   -37184.249   -506.27884   -1686.6797    551.34091    72.332367    62.641668     36.08763    60.354555   -311946.78 
   21200    251.23743    163518.76    72.333103    72.333103    36.087997          120    18269.866    17992.161   -37737.153    130.91359   -799.34676    340.60479    72.333103    62.642305    36.087997   -491.70867   -311945.38 
   21210    249.63629    163523.45    72.333793    72.333793    36.088341          120    17835.935    17671.792   -37300.949      556.434   -436.58088   -506.96948    72.333793    62.642903    36.088341   -597.74035   -311942.09 
   21220    251.79376    163527.74    72.334426    72.334427    36.088657          120    17740.411    17702.171   -36624.085    331.44864   -459.42494   -681.55702    72.334426    62.643451    36.088657    -393.8344   -311946.26 
   21230    249.15529    163531.79    72.335024    72.335024    36.088955          120    18536.593    18060.504   -36123.774    394.69267   -1410.2065   -172.10621    72.335024    62.643969    36.088955    157.77438   -311941.14 
   21240    252.18826     163535.9    72.335629     72.33563    36.089257          120     18817.52    18283.669   -36103.521    849.83869   -1680.3848    867.08401    72.335629    62.644493    36.089257    332.55593   -311946.89 
   21250     249.3075    163540.18     72.33626     72.33626    36.089572          120    18365.926    18715.167   -36554.951    34.001991   -1135.0399    867.40092     72.33626    62.645039    36.089572    175.38082   -311941.55 
   21260    251.67854    163544.54    72.336903    72.336903    36.089893          120    18590.295    18620.464   -36864.714   -425.87253   -1144.1596    297.21154    72.336903    62.645596    36.089893    115.34845   -311945.72 
   21270    250.17862    163548.97    72.337556    72.337557    36.090219          120    19154.726    18385.096   -36453.303     123.8524    -1508.522    957.04203    72.337556    62.646162    36.090219    362.17291   -311943.26 
   21280    251.86181    163553.57    72.338234    72.338235    36.090557          120    19534.751    17992.869   -36765.513    264.30864   -1244.3567     882.6657    72.338234    62.646749    36.090557    254.03552   -311946.14 
   21290     252.6616    163558.31    72.338933    72.338934    36.090906          120    19516.434    18203.675   -36756.189    170.04323   -1146.0378    322.81368    72.338933    62.647355    36.090906    321.30687   -311948.22 
   21300    251.90064    163563.19    72.339652    72.339653    36.091264          120    19518.009    17321.044   -37034.716    229.06896   -1224.1119    201.83543    72.339652    62.647977    36.091264   -65.220819   -311947.12 
   21310    250.18065    163568.01    72.340363    72.340363    36.091619          120    19106.337    17037.473   -37292.459   -108.91234   -1350.2406   -241.63391    72.340363    62.648593    36.091619     -382.883   -311944.41 
   21320    251.08805    163572.57    72.341036    72.341036    36.091955          120    18171.334     17420.91   -36866.062   -400.34541   -1193.8912     12.61157    72.341036    62.649175    36.091955   -424.60585   -311946.42 
   21330    252.05593    163576.82    72.341661    72.341662    36.092267          120    18722.644    16857.059    -37331.54   -55.730681   -728.80581    95.380046    72.341661    62.649717    36.092267   -583.94569   -311949.09 
   21340    247.67485    163580.67     72.34223     72.34223     36.09255          120    18844.868    16673.493    -37540.62    241.88383   -783.96002   -62.862703     72.34223    62.650209     36.09255   -674.08641   -311941.46 
   21350    248.90291    163584.07     72.34273    72.342731      36.0928          120    18298.388    17320.402   -38168.044    450.89636   -457.11069    321.37557     72.34273    62.650643      36.0928   -849.75166   -311944.16 
   21360    248.31899    163586.95    72.343155    72.343155    36.093012          120    18338.601    17798.767   -37732.686   -364.10409   -1300.0786    805.96967    72.343155     62.65101    36.093012   -531.77273   -311943.55 
   21370    248.78733    163589.44    72.343522    72.343522    36.093195          120    18364.541    17278.274   -38516.125   -177.40149   -1960.0404    1123.3274    72.343522    62.651328    36.093195    -957.7697   -311944.62 
   21380    249.70551    163591.36    72.343805    72.343806    36.093336          120    17663.372    17667.223   -38282.832    265.07586   -1919.5514    546.78225    72.343805    62.651574    36.093336   -984.07881   -311946.25 
   21390    249.24182    163592.67    72.343998    72.343999    36.093433          120     17412.29    17348.179   -36979.308    216.63816   -2206.5488    84.226747    72.343998    62.651741    36.093433   -739.61297    -311945.2 
   21400    249.97027    163593.49    72.344119    72.344119    36.093493          120    18092.659    17372.646   -37489.566   -115.90017   -1653.2526    1078.6602    72.344119    62.651845    36.093493   -674.75354   -311946.88 
   21410    250.69657     163593.9     72.34418    72.344181    36.093523          120    17922.865    17781.911   -36555.908   -621.93327   -1339.2118    770.42781     72.34418    62.651899    36.093523   -283.71068   -311948.94 
   21420    248.11607    163594.14    72.344215    72.344216    36.093541          120    18524.822    17573.165   -36105.597   -390.28953   -1626.6423    410.97256    72.344215    62.651929    36.093541   -2.5365546   -311944.01 
   21430    250.36134    163594.38    72.344251    72.344251    36.093559          120    19150.371    17574.175   -36178.971    92.352645   -1279.5554    441.30533    72.344251     62.65196    36.093559    181.85813   -311948.46 
   21440    249.30947    163594.72    72.344301    72.344302    36.093584          120    18127.713    18016.013   -36290.724    375.01933   -1285.1025    231.90811    72.344301    62.652003    36.093584    -48.99955   -311946.67 
   21450    249.43736    163595.02    72.344345    72.344345    36.093605          120    17895.286    17650.879   -36783.801     88.96464   -1746.4405    263.63981    72.344345    62.652041    36.093605   -412.54526   -311946.97 
   21460    250.10492    163595.08    72.344354    72.344355     36.09361          120     18343.68    17884.882   -37023.443    -114.2688   -1631.8381    940.96288    72.344354    62.652049     36.09361   -264.96031   -311948.82 
   21470    249.05229    163594.95    72.344334    72.344335      36.0936          120    18145.748    17282.461   -37130.993    285.02122   -1212.3571    853.65862    72.344334    62.652032      36.0936   -567.59472   -311946.91 
   21480    247.42588    163594.48    72.344266    72.344266    36.093566          120    18219.249    17617.712   -37210.803    298.38006   -1156.1072    758.95591    72.344266    62.651973    36.093566    -457.9474   -311944.19 
   21490    250.90029    163593.72    72.344153    72.344153     36.09351          120    18510.399    17423.388   -38037.994   -183.44465   -1502.2378    433.31823    72.344153    62.651875     36.09351   -701.40201   -311950.91 
   21500    248.01315    163592.55    72.343981    72.343981    36.093424          120    18473.674    17503.848   -37792.933    60.815538   -2181.2983    -168.5777    72.343981    62.651726  