LAMMPS (16 Mar 2018)
Reading data file ...
  triclinic box = (0 0 0) to (9.208 7.97436 18.376) with tilt (-4.604 0 0)
  1 by 1 by 1 MPI processor grid
  reading atoms ...
  116 atoms
Finding 1-2 1-3 1-4 neighbors ...
  special bond factors lj:   0          0          0         
  special bond factors coul: 0          0          0         
  0 = max # of 1-2 neighbors
  0 = max # of 1-3 neighbors
  0 = max # of 1-4 neighbors
  1 = max # of special neighbors
Replicating atoms ...
  triclinic box = (0 0 0) to (73.664 63.7949 36.752) with tilt (-36.832 0 0)
  1 by 1 by 1 MPI processor grid
  14848 atoms
Finding 1-2 1-3 1-4 neighbors ...
  special bond factors lj:   0          0          0         
  special bond factors coul: 0          0          0         
  0 = max # of 1-2 neighbors
  0 = max # of 1-3 neighbors
  0 = max # of 1-4 neighbors
  1 = max # of special neighbors
  Time spent = 0.00479484 secs
PPPM initialization ...
WARNING: System is not charge neutral, net charge = -0.2048 (../kspace.cpp:302)
  using 12-bit tables for long-range coulomb (../kspace.cpp:321)
  G vector (1/distance) = 0.201681
  grid = 36 50 24
  stencil order = 5
  estimated absolute RMS force accuracy = 0.00105653
  estimated relative force accuracy = 7.33721e-05
  using double precision FFTs
  3d grid and FFT values/proc = 65395 43200
Neighbor list info ...
  update every 1 steps, delay 0 steps, check yes
  max neighbors/atom: 2000, page size: 100000
  master list distance cutoff = 15.3
  ghost atom cutoff = 15.3
  binsize = 7.65, bins = 15 9 5
  3 neighbor lists, perpetual/occasional/extra = 3 0 0
  (1) pair morse, perpetual
      attributes: half, newton on
      pair build: half/bin/newton/tri
      stencil: half/bin/3d/newton/tri
      bin: standard
  (2) pair buck, perpetual, copy from (1)
      attributes: half, newton on
      pair build: copy
      stencil: none
      bin: none
  (3) pair lj/cut/coul/long, perpetual, copy from (1)
      attributes: half, newton on
      pair build: copy
      stencil: none
      bin: none
Setting up Verlet run ...
  Unit style    : metal
  Current step  : 0
  Time step     : 0.001
Per MPI rank memory allocation (min/avg/max) = 145.7 | 145.7 | 145.7 Mbytes
Step Temp Volume Cella Cellb Cellc CellGamma Pxx Pyy Pzz Pxy Pxz Pyz Lx Ly Lz Press PotEng 
       0          260    172711.88       73.664    73.664001       36.752          120   -208414.85   -208455.77   -279437.62     21.77167   -6.6139884     8.841671       73.664    63.794896       36.752   -232102.75   -309191.56 
      10    341.03365    172634.26    73.652963    73.652964    36.746494          120   -210404.22   -210492.36   -257621.86    110.62682   -21.634081   -167.32636    73.652963    63.785338    36.746494   -226172.82    -309381.1 
      20    606.60137    172406.26    73.620524    73.620525    36.730309          120      -207742   -207369.88   -198340.17    31.749696   -253.92787   -363.61595    73.620524    63.757245    36.730309   -204484.02   -309936.31 
      30    611.45394     172046.9    73.569338    73.569339    36.704772          120   -181126.41   -180691.62   -118802.92   -205.99616   -814.17539   -437.93932    73.569338    63.712916    36.704772   -160206.98   -310010.15 
      40    393.40729    171596.48     73.50508     73.50508    36.672713          120   -136325.89   -136477.56   -39149.359   -598.89694    -1143.538    -475.9544     73.50508    63.657267    36.672713   -103984.27   -309640.26 
      50    478.44628    171109.06    73.435416    73.435417    36.637956          120    -94590.21   -95138.218   -5767.1449   -671.78029   -1197.8657   -616.51984    73.435416    63.596937    36.637956   -65165.191   -309833.57 
      60    779.23619    170629.11    73.366692    73.366692    36.603669          120   -69090.879    -68980.77    -42798.54   -638.31879   -2075.0093   -451.06203    73.366692    63.537419    36.603669   -60290.063    -310446.1 
      70    957.21953     170176.2    73.301721    73.301722    36.571254          120   -52605.059   -52357.709   -105732.82   -1605.1452   -2424.8383    -464.5966    73.301721    63.481153    36.571254   -70231.864   -310852.99 
      80    817.33394    169753.21    73.240938    73.240938    36.540928          120   -42819.319   -43567.071   -151729.53   -1757.1917    -2915.279     91.47273    73.240938    63.428513    36.540928   -79371.973   -310656.36 
      90    548.42465    169357.31    73.183955    73.183955    36.512499          120   -37264.462   -37988.637   -166513.48   -1998.1279   -3388.6987   -302.00859    73.183955    63.379165    36.512499   -80588.859   -310196.67 
     100    565.24158    168986.49    73.130503    73.130503    36.485831          120   -22215.714   -22365.928   -146441.57   -1732.5215   -3149.6858   -773.36581    73.130503    63.332874    36.485831   -63674.403   -310272.38 
     110    737.75081    168644.94    73.081199      73.0812    36.461233          120    -2720.431   -2971.0662   -103884.56   -1830.6813   -2205.2104   -919.32136    73.081199    63.290176    36.461233   -36525.352   -310653.74 
     120    742.23378    168339.42     73.03704    73.037041    36.439201          120    8206.8817    8225.1194   -53379.687   -1839.8315   -1686.5905   -1447.7577     73.03704    63.251933    36.439201   -12315.895   -310717.97 
     130    638.04846    168073.21    72.998521    72.998521    36.419983          120    6847.9167    7939.6487   -13752.905   -1758.6606   -1617.9106    -1418.473    72.998521    63.218574    36.419983    344.88672    -310566.4 
     140    590.49939    167843.43    72.965239    72.965239    36.403378          120    2000.2623    1927.5937   -1263.0592   -1277.4106   -1417.7728   -1230.2435    72.965239    63.189751    36.403378    888.26559   -310514.05 
     150    641.57667    167641.72    72.935998    72.935999     36.38879          120   -5887.3199   -4687.5917   -23724.174   -1908.1511   -1090.5804   -600.16811    72.935998    63.164428     36.38879   -11433.029   -310652.54 
     160    703.13585    167454.96    72.908903    72.908903    36.375271          120   -16295.264   -14585.542   -59738.516   -1663.7699   -1367.1483    -536.4992    72.908903    63.140963    36.375271   -30206.441   -310821.25 
     170    685.25869    167269.03    72.881909     72.88191    36.361804          120   -21177.384   -19030.322   -90156.095   -682.88976    -2111.431   -879.56772    72.881909    63.117586    36.361804     -43454.6   -310842.55 
     180    608.64574    167074.88    72.853701    72.853701     36.34773          120   -18065.042   -16281.935   -107493.29   -586.76258   -2322.9405   -959.16288    72.853701    63.093156     36.34773    -47280.09   -310747.78 
     190    582.69042    166870.25    72.823945    72.823945    36.332885          120    -13094.16   -11740.281   -105948.73    137.14515   -1769.0941   -919.24372    72.823945    63.067387    36.332885    -43594.39   -310744.64 
     200    619.00191    166658.05    72.793063    72.793064    36.317477          120   -8747.4143   -7886.5188   -86804.994   -612.50519   -1847.2226   -774.79499    72.793063    63.040643    36.317477   -34479.642   -310861.14 
     210    626.24163    166444.43    72.761947    72.761948    36.301953          120   -4265.4577   -3273.8654   -63053.414   -1056.1222   -1828.4658   -608.23421    72.761947    63.013695    36.301953   -23530.912   -310923.83 
     220     600.9794    166236.28    72.731603    72.731604    36.286814          120   -458.53696    664.09928   -43500.407   -882.14207    -1482.529   -1630.8302    72.731603    62.987417    36.286814   -14431.615   -310920.75 
     230    579.06523    166038.65    72.702771    72.702771    36.272429          120    200.37711    713.65259   -35828.465   -586.57219   -1076.5222   -2081.3198    72.702771    62.962447    36.272429   -11638.145   -310922.04 
     240    578.86789    165852.61    72.675606    72.675607    36.258877          120   -1845.6022   -1544.2157   -40180.976   -306.00972   -1709.4745   -2146.1853    72.675606    62.938922    36.258877   -14523.598   -310963.77 
     250    592.52286    165675.69    72.649756    72.649756    36.245979          120   -4168.2248    -4345.965    -54008.37    145.44447   -1622.6784   -1958.6651    72.649756    62.916534    36.245979   -20840.853    -311034.4 
     260    589.63103    165503.72    72.624611    72.624611    36.233434          120   -4729.8715   -6097.4376   -68628.791    356.86877   -1430.6689   -2190.9797    72.624611    62.894758    36.233434   -26485.367   -311074.81 
     270    564.32284    165333.26    72.599669     72.59967     36.22099          120   -3973.2349   -5285.5781   -76760.492   -105.74713   -1314.3076     -1492.18    72.599669    62.873158     36.22099   -28673.102   -311071.66 
     280    545.24205    165163.14     72.57476    72.574761    36.208563          120   -2200.8678   -2936.6988    -75926.25    15.647409   -912.77176    -230.4448     72.57476    62.851587    36.208563   -27021.272   -311077.33 
     290    544.56366    164994.53    72.550054    72.550055    36.196237          120    940.65977    966.26578   -66815.148    75.798913   -1138.0672    28.046576    72.550054    62.830191    36.196237   -21636.074   -311117.48 
     300    544.89042    164830.49    72.526003    72.526004    36.184238          120    5032.9852    4843.0824   -53937.193    152.29959   -1337.4015   -116.12967    72.526003    62.809362    36.184238   -14687.042   -311158.18 
     310    535.53469    164674.66    72.503141    72.503142    36.172831          120    7642.0068    7342.9696   -40285.063    247.00894   -1392.2216   -186.71878    72.503141    62.789563    36.172831   -8433.3622   -311179.12 
     320     522.4651    164529.73    72.481865    72.481865    36.162216          120    8237.9153    8037.9218   -32116.411    268.51471   -1626.0269   -850.16938    72.481865    62.771137    36.162216   -5280.1913   -311191.78 
     330    517.71566    164396.32    72.462268    72.462268    36.152439          120    6822.3642    7453.1834   -32346.233   -5.2765574   -1805.5182   -1042.5617    72.462268    62.754165    36.152439   -6023.5618   -311220.12 
     340    516.34514    164272.77    72.444111    72.444112     36.14338          120    5310.8809    6340.3176   -40560.357     288.2366    -1211.021   -1157.8805    72.444111    62.738441     36.14338   -9636.3862   -311254.12 
     350    509.93116    164155.97    72.426938    72.426939    36.134813          120    4668.6656    5009.4653    -51659.45      246.896   -230.01528   -806.56483    72.426938    62.723569    36.134813   -13993.773   -311278.12 
     360    493.56693    164042.76    72.410284    72.410285    36.126504          120    4693.8254    6078.8882   -58949.441   -601.21292   -213.89142    -1077.831    72.410284    62.709146    36.126504   -16058.909   -311281.91 
     370     479.9723     163931.5     72.39391    72.393911    36.118335          120    5846.9242     8606.524   -58967.823   -923.53689   -1398.4118   -1138.5359     72.39391    62.694966    36.118335   -14838.125   -311289.62 
     380    477.01556    163822.52    72.377863    72.377864    36.110328          120    8008.4914    10840.243   -54155.819   -1346.8904   -1504.5179   -971.68405    72.377863    62.681069    36.110328   -11769.028   -311316.47 
     390    473.44666    163717.17    72.362347    72.362347    36.102587          120    10598.983    11987.179   -45936.785   -1355.4987   -1975.0014   -857.31888    72.362347    62.667631    36.102587   -7783.5414   -311342.07 
     400    463.10829    163617.31     72.34763     72.34763    36.095244          120    12950.089    14189.858   -36875.476   -11.546298   -2113.8408   -690.20474     72.34763    62.654886    36.095244   -3245.1765   -311353.64 
     410     455.9327    163524.77    72.333988    72.333989    36.088438          120    14288.685    15702.348   -30648.714   -91.935368   -1815.0239   -942.21468    72.333988    62.643072    36.088438   -219.22714   -311370.43 
     420    453.17385     163440.4    72.321546    72.321546    36.082231          120    14266.979    15392.975   -30621.954   -113.42364   -1381.4825   -723.66456    72.321546    62.632297    36.082231   -320.66648   -311394.87 
     430     447.0104    163363.31    72.310173    72.310173    36.076557          120    13644.664    13607.776   -35065.989    526.04107   -1690.5254    373.26319    72.310173    62.622447    36.076557   -2604.5164   -311412.25 
     440    442.32046    163291.47    72.299572    72.299572    36.071268          120    13195.665    11889.982   -41445.254    264.18449   -2121.3737    439.40137    72.299572    62.613266    36.071268   -5453.2022   -311432.37 
     450    432.02637    163222.78    72.289433    72.289433    36.066209          120    13309.652    12348.456   -46016.807    415.02048   -1963.7578    165.61605    72.289433    62.604486    36.066209   -6786.2328   -311440.21 
     460    425.23421    163156.13    72.279592    72.279593      36.0613          120     14110.71    14331.426   -46269.183    888.32496   -1263.6508   -362.54983    72.279592    62.595964      36.0613    -5942.349   -311454.51 
     470     419.5015    163091.73    72.270081    72.270081    36.056554          120    16682.612    16758.316   -43574.341    970.91458   -876.13598   -140.60594    72.270081    62.587726    36.056554   -3377.8044   -311469.43 
     480    415.39291     163030.7    72.261065    72.261065    36.052056          120    17989.183    18161.478   -37617.247    884.99376   -821.06945      456.436    72.261065    62.579919    36.052056   -488.86209   -311486.66 
     490    408.33946    162974.29     72.25273    72.252731    36.047898          120    18292.407    19139.118   -32664.199    1128.2163   -101.56597    921.32996     72.25273    62.572701    36.047898    1589.1088    -311497.8 
     500    403.12237     162923.3    72.245194    72.245195    36.044138          120    19811.544    20067.891    -29714.78     987.2516    370.95409    663.09606    72.245194    62.566174    36.044138    3388.2184   -311512.16 
     510    401.76429    162878.17    72.238523    72.238524     36.04081          120     20005.77    20373.853   -29592.548    745.78173    176.95424    539.09469    72.238523    62.560397     36.04081    3595.6916   -311533.23 
     520    392.63436     162838.5    72.232657    72.232657    36.037883          120    19125.845    19703.805   -32268.238    244.02182   -310.70784    113.16056    72.232657    62.555316    36.037883    2187.1376   -311538.84 
     530    386.59223    162803.08    72.227419     72.22742     36.03527          120    19060.378    19262.799   -34878.783    215.56695   -249.31628   -302.56592    72.227419    62.550781     36.03527    1148.1313   -311549.94 
     540    380.64068    162770.96     72.22267    72.222671      36.0329          120    19256.475    20567.278   -37799.257    693.51981   -1030.9179   -405.73784     72.22267    62.546668      36.0329    674.83185   -311560.04 
     550    377.17093    162741.61    72.218328    72.218328    36.030734          120    19330.159    21457.207   -38630.579    775.84277   -1109.5362   -908.46644    72.218328    62.542907    36.030734    718.92868   -311574.35 
     560    371.16296    162714.78     72.21436     72.21436    36.028754          120     19032.26    21570.582   -36557.644    167.72696   -1165.0134     -513.374     72.21436    62.539471    36.028754    1348.3995   -311584.03 
     570    367.23448    162690.68    72.210794    72.210795    36.026975          120    20650.357    21932.865   -33573.375   -485.11797   -782.28479   -159.78814    72.210794    62.536383    36.026975    3003.2825   -311596.82 
     580    366.57258    162669.95    72.207726    72.207727    36.025445          120    21480.675    22077.844   -31120.738   -594.24216   -498.34835    439.51902    72.207726    62.533726    36.025445    4145.9268   -311615.48 
     590    357.37855       162653    72.205218    72.205219    36.024193          120    21451.318    22045.001   -29437.346   -749.46065   -714.72781    46.596482    72.205218    62.531554    36.024193    4686.3241   -311617.58 
     600     353.4252    162639.85    72.203273    72.203273    36.023223          120    20866.804     21922.69    -29211.53   -381.02159   -491.57205    251.61189    72.203273    62.529869    36.023223    4525.9882   -311628.84 
     610    348.83663    162630.16    72.201838    72.201839    36.022507          120    21556.841    21778.344   -31250.518   -176.99849   -586.80091    348.04095    72.201838    62.528627    36.022507    4028.2224    -311638.1 
     620    348.48234    162623.39    72.200837    72.200837    36.022007          120    21312.746    21122.467   -33622.291   -672.09808   -132.60907   -156.88492    72.200837     62.52776    36.022007    2937.6403   -311655.19 
     630    344.09245    162618.75     72.20015    72.200151    36.021665          120    20900.994    20839.572   -35819.629   -871.95567   -159.00959   -396.30523     72.20015    62.527165    36.021665    1973.6456   -311664.57 
     640    342.27464     162615.6    72.199685    72.199685    36.021433          120    21298.322    21491.098   -35667.509   -480.55737   -277.05689   -722.40243    72.199685    62.526762    36.021433    2373.9704   -311678.39 
     650    334.03214    162614.03    72.199451    72.199452    36.021316          120    21883.675    22212.197   -34617.273   -406.65782   -635.38745   -1248.4708    72.199451     62.52656    36.021316     3159.533   -311679.78 
     660    331.91751    162614.38    72.199504    72.199504    36.021342          120    22751.552    22727.722   -33008.686    484.98665   -1324.9889   -1265.8197    72.199504    62.526605    36.021342    4156.8626   -311692.11 
     670    326.39175    162617.13     72.19991    72.199911    36.021545          120    22578.322    23146.962   -29853.313    1484.0003   -826.04253   -737.26071     72.19991    62.526957    36.021545    5290.6572   -311697.36 
     680    323.27375    162622.72    72.200738    72.200739    36.021958          120    22307.466    22823.348   -28643.992     1718.842   -1129.5051   -330.18998    72.200738    62.527674    36.021958    5495.6074   -311706.56 
     690     318.0233    162631.12     72.20198    72.201981    36.022578          120    22257.684    22735.076   -30251.845    1088.8191   -973.20965    105.57578     72.20198     62.52875    36.022578    4913.6383   -311711.52 
     700    315.85422    162641.84    72.203567    72.203568     36.02337          120    22248.787     21909.32   -32100.248    679.88971   -1173.3511    433.23239    72.203567    62.530124     36.02337    4019.2863   -311721.79 
     710    314.70462     162654.3     72.20541    72.205411    36.024289          120     21883.77    21736.297   -32875.821    676.89604   -1036.9368    507.42711     72.20541     62.53172    36.024289    3581.4154   -311732.72 
     720    312.45657    162668.13    72.207457    72.207457     36.02531          120    22460.663    22282.022   -34105.117    425.22717   -439.51613    672.77438    72.207457    62.533493     36.02531    3545.8562   -311741.95 
     730    308.71005     162683.2    72.209688    72.209688    36.026423          120    22210.336    21946.408   -34787.841    682.36451   -326.17768    197.01206    72.209688    62.535424    36.026423    3122.9674   -311748.13 
     740    305.13719    162699.25    72.212062    72.212063    36.027608          120      21652.8    21428.755   -34396.201    497.37962   -786.05212    699.70556    72.212062    62.537481    36.027608    2895.1178   -311754.38 
     750    301.29289    162716.14    72.214561    72.214561    36.028854          120    22088.231    21077.974   -32579.388    1056.0986   -1258.7237    256.24043    72.214561    62.539645    36.028854    3528.9391   -311759.89 
     760    298.68655    162734.11    72.217218    72.217219     36.03018          120    22153.969    20528.602   -32085.012    1195.1273   -1696.8781    112.69541    72.217218    62.541946     36.03018    3532.5199   -311766.92 
     770    296.27812    162753.17    72.220039    72.220039    36.031588          120     22096.44     20514.71   -31222.811    606.71598   -1496.5411    159.54217    72.220039    62.544389    36.031588    3796.1128   -311773.98 
     780     296.1294    162773.35    72.223023    72.223023    36.033076          120    21980.822    19816.603   -32127.231    847.22531   -1580.6946    312.29527    72.223023    62.546973    36.033076     3223.398   -311785.72 
     790    291.64371    162794.33    72.226126    72.226126    36.034624          120    21274.362    19406.584   -32844.879    980.18579   -1549.3026    682.82058    72.226126     62.54966    36.034624    2612.0222   -311788.79 
     800    286.78328    162815.68    72.229284    72.229284      36.0362          120    20175.528    19093.907   -34599.301     718.1692   -1381.8357     385.0383    72.229284    62.552395      36.0362    1556.7113   -311789.79 
     810    286.80534    162836.85    72.232413    72.232413    36.037761          120    19981.366    19574.182   -36816.974     731.4563   -805.28528    135.81341    72.232413    62.555105    36.037761    912.85805   -311800.02 
     820    286.94931    162857.43    72.235456    72.235457     36.03928          120    19311.906    19566.618   -37668.965    1210.0129   -619.85833    1077.6097    72.235456    62.557741     36.03928    403.18628   -311810.35 
     830    281.81426    162877.21     72.23838    72.238381    36.040738          120    19666.389     18451.34   -37227.294    1048.2855   -501.91275    1524.0923     72.23838    62.560273    36.040738    296.81154   -311810.72 
     840     278.1616    162896.18    72.241185    72.241186    36.042138          120     20507.63    18427.076       -36316    683.04803   -1077.0385    724.70793    72.241185    62.562702    36.042138    872.90183   -311813.09 
     850    277.14634    162914.69    72.243921    72.243922    36.043503          120    20887.496    19222.297   -35424.863     748.0782   -1193.7005    320.11168    72.243921    62.565071    36.043503     1561.643   -311820.52 
     860    273.60026    162933.17    72.246652    72.246653    36.044865          120        20939    19484.832   -34084.739    804.78288   -492.53716   -218.25672    72.246652    62.567437    36.044865    2113.0311   -311822.39 
     870    273.88697    162951.93    72.249426    72.249426    36.046249          120    20679.906    20254.206   -34123.237     786.5402   -948.71353    294.99549    72.249426    62.569839    36.046249    2270.2915   -311831.49 
     880    272.60575    162971.09    72.252258    72.252258    36.047662          120    20759.171    20752.766   -34632.549    1367.2388   -1309.3812    572.67587    72.252258    62.572291    36.047662    2293.1295   -311837.08 
     890    269.52237    162990.57    72.255136    72.255136    36.049098          120    19292.853    20005.584   -36166.925    1903.6432   -1433.6197    1036.6097    72.255136    62.574784    36.049098     1043.837   -311839.44 
     900    264.76627    163009.72    72.257965    72.257965    36.050509          120    18586.764    18697.921   -36606.326    1828.9174   -1188.0544     556.2235    72.257965    62.577234    36.050509    226.11957   -311836.93 
     910    263.21973    163028.09     72.26068    72.260681    36.051864          120    18839.712    18423.081   -36454.862    1592.8142   -1300.3537    800.28971     72.26068    62.579585    36.051864    269.31045   -311841.41 
     920    265.28233    163045.73    72.263285    72.263286    36.053164          120    18862.571    18664.529   -36901.239    1159.4429   -725.57949    1056.4938    72.263285    62.581842    36.053164    208.62001   -311851.99 
     930     262.2652    163062.64    72.265785    72.265785    36.054411          120    19008.937    19026.805   -37233.915    1201.8932   -576.29521    326.70161    72.265785    62.584006    36.054411    267.27585   -311852.55 
     940     263.6637    163078.91    72.268188    72.268188     36.05561          120    18398.806    19222.683   -36068.351    1202.0442   -891.30402    339.31339    72.268188    62.586087     36.05561    517.71276   -311860.92 
     950    259.97855    163094.71    72.270521    72.270522    36.056774          120    18081.098    19463.344   -35144.702    1506.6501   -866.80265    894.14084    72.270521    62.588108    36.056774    799.91316   -311860.37 
     960    258.11713     163110.2    72.272809    72.272809    36.057915          120    18092.655     19325.68   -36019.057    1300.6245   -1373.5049     646.6168    72.272809    62.590089    36.057915    466.42591   -311862.54 
     970    257.61774    163125.21    72.275025    72.275026    36.059021          120    17890.023    18555.265   -37176.989     898.7153   -1663.6389    1199.0379    72.275025    62.592008    36.059021   -243.90054   -311866.84 
     980    255.54447    163139.38    72.277119    72.277119    36.060065          120    17804.289    17675.045    -37368.35    701.21876   -2021.2564    1087.5071    72.277119    62.593821    36.060065    -629.6718   -311867.42 
     990    254.98569    163152.55    72.279063    72.279063    36.061035          120    18291.933    17034.629   -36985.687     572.6421   -2457.2998    698.65466    72.279063    62.595505    36.061035   -553.04179   -311871.07 
    1000    254.28494    163164.78     72.28087     72.28087    36.061937          120    18704.632     17638.08   -37330.786    983.92038     -2676.17    1062.4093     72.28087     62.59707    36.061937   -329.35803   -311873.85 
Loop time of 389.957 on 1 procs for 1000 steps with 14848 atoms

Performance: 0.222 ns/day, 108.321 hours/ns, 2.564 timesteps/s
100.0% CPU use with 1 MPI tasks x no OpenMP threads

MPI task timing breakdown:
Section |  min time  |  avg time  |  max time  |%varavg| %total
---------------------------------------------------------------
Pair    | 311.56     | 311.56     | 311.56     |   0.0 | 79.90
Bond    | 0.00056934 | 0.00056934 | 0.00056934 |   0.0 |  0.00
Kspace  | 14.532     | 14.532     | 14.532     |   0.0 |  3.73
Neigh   | 54.796     | 54.796     | 54.796     |   0.0 | 14.05
Comm    | 0.53103    | 0.53103    | 0.53103    |   0.0 |  0.14
Output  | 0.013674   | 0.013674   | 0.013674   |   0.0 |  0.00
Modify  | 8.3467     | 8.3467     | 8.3467     |   0.0 |  2.14
Other   |            | 0.178      |            |       |  0.05

Nlocal:    14848 ave 14848 max 14848 min
Histogram: 1 0 0 0 0 0 0 0 0 0
Nghost:    46823 ave 46823 max 46823 min
Histogram: 1 0 0 0 0 0 0 0 0 0
Neighs:    1.00866e+07 ave 1.00866e+07 max 1.00866e+07 min
Histogram: 1 0 0 0 0 0 0 0 0 0

Total # of neighbors = 10086564
Ave neighs/atom = 679.321
Ave special neighs/atom = 0
Neighbor list builds = 163
Dangerous builds = 0
PPPM initialization ...
  using 12-bit tables for long-range coulomb (../kspace.cpp:321)
  G vector (1/distance) = 0.202611
  grid = 36 50 24
  stencil order = 5
  estimated absolute RMS force accuracy = 0.000997265
  estimated relative force accuracy = 6.92562e-05
  using double precision FFTs
  3d grid and FFT values/proc = 65395 43200
Setting up Verlet run ...
  Unit style    : metal
  Current step  : 0
  Time step     : 0.001
Per MPI rank memory allocation (min/avg/max) = 151.5 | 151.5 | 151.5 Mbytes
Step Temp Volume Cella Cellb Cellc CellGamma Pxx Pyy Pzz Pxy Pxz Pyz Lx Ly Lz Press PotEng 
       0    254.28494    163164.78     72.28087     72.28087    36.061937          120     18716.66     17650.55   -37324.234    984.45401    -2676.079    1062.3283     72.28087     62.59707    36.061937   -319.00793   -311873.68 
  100000    262.84616    163932.77    72.394097    72.394098    36.118428          120     20100.03    16744.836   -38233.288     1575.112   -3036.6383    1803.2572    72.394097    62.695128    36.118428   -462.80747   -311948.26 
Loop time of 37683 on 1 procs for 100000 steps with 14848 atoms

Performance: 0.229 ns/day, 104.675 hours/ns, 2.654 timesteps/s
99.1% CPU use with 1 MPI tasks x no OpenMP threads

MPI task timing breakdown:
Section |  min time  |  avg time  |  max time  |%varavg| %total
---------------------------------------------------------------
Pair    | 30844      | 30844      | 30844      |   0.0 | 81.85
Bond    | 0.058405   | 0.058405   | 0.058405   |   0.0 |  0.00
Kspace  | 1489       | 1489       | 1489       |   0.0 |  3.95
Neigh   | 4438.3     | 4438.3     | 4438.3     |   0.0 | 11.78
Comm    | 49.479     | 49.479     | 49.479     |   0.0 |  0.13
Output  | 0.16632    | 0.16632    | 0.16632    |   0.0 |  0.00
Modify  | 844.71     | 844.71     | 844.71     |   0.0 |  2.24
Other   |            | 17.63      |            |       |  0.05

Nlocal:    14848 ave 14848 max 14848 min
Histogram: 1 0 0 0 0 0 0 0 0 0
Nghost:    46750 ave 46750 max 46750 min
Histogram: 1 0 0 0 0 0 0 0 0 0
Neighs:    1.00399e+07 ave 1.00399e+07 max 1.00399e+07 min
Histogram: 1 0 0 0 0 0 0 0 0 0

Total # of neighbors = 10039908
Ave neighs/atom = 676.179
Ave special neighs/atom = 0
Neighbor list builds = 12159
Dangerous builds = 0
 
All done!
Total wall time: 10:34:34
