LAMMPS (16 Mar 2018)
Reading data file ...
  triclinic box = (0 0 0) to (9.208 7.97436 18.376) with tilt (-4.604 0 0)
  1 by 1 by 1 MPI processor grid
  reading atoms ...
  116 atoms
Finding 1-2 1-3 1-4 neighbors ...
  special bond factors lj:   0          0          0         
  special bond factors coul: 0          0          0         
  0 = max # of 1-2 neighbors
  0 = max # of 1-3 neighbors
  0 = max # of 1-4 neighbors
  1 = max # of special neighbors
Replicating atoms ...
  triclinic box = (0 0 0) to (73.664 63.7949 36.752) with tilt (-36.832 0 0)
  1 by 1 by 1 MPI processor grid
  14848 atoms
Finding 1-2 1-3 1-4 neighbors ...
  special bond factors lj:   0          0          0         
  special bond factors coul: 0          0          0         
  0 = max # of 1-2 neighbors
  0 = max # of 1-3 neighbors
  0 = max # of 1-4 neighbors
  1 = max # of special neighbors
  Time spent = 0.00476289 secs
PPPM initialization ...
WARNING: System is not charge neutral, net charge = -0.2048 (../kspace.cpp:302)
  using 12-bit tables for long-range coulomb (../kspace.cpp:321)
  G vector (1/distance) = 0.201681
  grid = 36 50 24
  stencil order = 5
  estimated absolute RMS force accuracy = 0.00105653
  estimated relative force accuracy = 7.33721e-05
  using double precision FFTs
  3d grid and FFT values/proc = 65395 43200
Neighbor list info ...
  update every 1 steps, delay 0 steps, check yes
  max neighbors/atom: 2000, page size: 100000
  master list distance cutoff = 15.3
  ghost atom cutoff = 15.3
  binsize = 7.65, bins = 15 9 5
  3 neighbor lists, perpetual/occasional/extra = 3 0 0
  (1) pair morse, perpetual
      attributes: half, newton on
      pair build: half/bin/newton/tri
      stencil: half/bin/3d/newton/tri
      bin: standard
  (2) pair buck, perpetual, copy from (1)
      attributes: half, newton on
      pair build: copy
      stencil: none
      bin: none
  (3) pair lj/cut/coul/long, perpetual, copy from (1)
      attributes: half, newton on
      pair build: copy
      stencil: none
      bin: none
Setting up Verlet run ...
  Unit style    : metal
  Current step  : 0
  Time step     : 0.001
Per MPI rank memory allocation (min/avg/max) = 145.7 | 145.7 | 145.7 Mbytes
Step Temp Volume Cella Cellb Cellc CellGamma Pxx Pyy Pzz Pxy Pxz Pyz Lx Ly Lz Press PotEng 
       0          410    172711.88       73.664    73.664001       36.752          120   -206617.51   -206686.48   -277663.38    33.582467   -10.427239    13.943581       73.664    63.794896       36.752   -230322.46   -309191.56 
      10    412.01694    172663.13    73.657069     73.65707    36.748542          120   -206548.53   -206631.66   -253520.62    132.95899   -31.817703   -203.12787    73.657069    63.788894    36.748542    -222233.6    -309220.9 
      20    691.94652    172520.44    73.636773    73.636774    36.738416          120   -200787.51   -200475.39   -193049.08     40.79848   -279.26339   -451.24473    73.636773    63.771317    36.738416   -198103.99   -309785.84 
      30    726.25043    172295.52    73.604758    73.604759    36.722443          120   -168519.56    -168243.1   -113774.34   -186.72652   -850.21302   -502.87356    73.604758    63.743591    36.722443      -150179    -309895.9 
      40    507.42027    172011.29    73.564261    73.564262    36.702239          120   -119590.97   -119972.23   -33712.131    -835.6157   -1157.5752   -523.60575    73.564261    63.708519    36.702239   -91091.777   -309502.95 
      50     601.4075    171696.17    73.519311    73.519312    36.679813          120   -81595.398   -82453.606   -6084.4797   -646.15673   -1109.9177   -640.79757    73.519311    63.669592    36.679813   -56711.161   -309697.61 
      60    878.64674    171370.13    73.472746    73.472747    36.656581          120   -63632.687    -63395.08   -48184.897   -846.29781   -1956.5823   -504.54158    73.472746    63.629265    36.656581   -58404.221   -310252.15 
      70    1033.9195     171039.7    73.425492    73.425493    36.633005          120   -53311.855    -53379.52   -111917.11   -1827.6344   -2465.7345   -677.65431    73.425492    63.588342    36.633005   -72869.494    -310598.1 
      80    903.12291     170705.6    73.377653    73.377654    36.609137          120   -47940.223   -49314.207   -157546.55   -1867.9013   -2656.8702    3.8013729    73.377653    63.546912    36.609137   -84933.659   -310402.11 
      90    651.87079    170369.38    73.329447    73.329448    36.585087          120   -43752.311   -44478.213   -170770.26   -2056.5475   -3106.5363   -750.15214    73.329447    63.505165    36.585087   -86333.595   -309965.16 
     100    667.59675    170036.58    73.281669    73.281669     36.56125          120    -27802.99   -28064.346   -149819.12   -1862.1417   -2839.5571   -1101.6265    73.281669    63.463787     36.56125   -68562.154      -310033 
     110    832.38937    169718.01    73.235874    73.235875    36.538402          120   -7830.4509   -8315.4344   -108425.82   -1878.3371   -1454.5768   -1380.9508    73.235874    63.424128    36.538402   -41523.901   -310391.14 
     120    849.61667    169425.02    73.193707    73.193708    36.517364          120    3009.2911    2964.6988   -60226.586   -1840.9742   -913.51066   -1559.3328    73.193707     63.38761    36.517364   -18084.199   -310469.63 
     130    754.03509    169164.27    73.156139     73.15614    36.498621          120    2544.8291    3748.2846   -22373.057   -1622.0374   -967.24019   -1697.6653    73.156139    63.355076    36.498621   -5359.9811   -310326.78 
     140    703.43799    168935.99    73.123216    73.123217    36.482195          120   -1702.9462   -1738.7722   -9187.4753    -1069.993   -909.28483   -1832.1815    73.123216    63.326563    36.482195   -4209.7312   -310263.16 
     150    744.96684    168734.96      73.0942      73.0942    36.467719          120    -9375.623   -8517.4636   -28898.241   -1777.5656    -554.9447    -1393.697      73.0942    63.301435    36.467719   -15597.109   -310376.63 
     160    806.41581    168551.91    73.067759    73.067759    36.454527          120   -19007.491   -17810.527   -62379.171   -1550.6347   -1286.8651   -1702.3217    73.067759    63.278536    36.454527    -33065.73   -310536.35 
     170     801.1508    168376.67    73.042427    73.042428    36.441889          120   -23513.683   -21995.384   -92045.825   -902.10668   -2199.7012   -1743.0089    73.042427    63.256598    36.441889   -45851.631   -310572.11 
     180    731.61471    168201.95    73.017154    73.017155     36.42928          120   -21779.706   -19779.896   -110377.11   -999.07374   -2577.1965   -1960.8157    73.017154    63.234711     36.42928   -50645.569   -310484.18 
     190    702.11765    168024.43    72.991458    72.991459     36.41646          120    -17791.52   -15897.562   -111101.15   -458.12966   -2436.5353   -2021.7675    72.991458    63.212458     36.41646   -48263.411   -310468.07 
     200    734.69734    167844.12    72.965339    72.965339    36.403428          120   -13438.055   -13101.266   -94137.099   -796.32769   -2195.1455   -2038.3034    72.965339    63.189838    36.403428   -40225.473   -310571.06 
     210     749.1207    167663.32    72.939131    72.939131    36.390353          120   -8838.6043   -8823.6452   -72252.381   -1129.4209   -1818.8592   -2019.2234    72.939131    63.167141    36.390353   -29971.543   -310640.43 
     220    731.74831    167485.22    72.913295    72.913295    36.377463          120   -6392.4214   -4497.7487   -54142.679    -1065.538   -1207.8668   -2942.5558    72.913295    63.144766    36.377463   -21677.616   -310647.15 
     230    710.77562    167312.17    72.888175    72.888175     36.36493          120   -6239.4058    -4720.076   -45026.604   -587.84293   -798.65263   -3653.3724    72.888175    63.123012     36.36493   -18662.029   -310645.27 
     240    706.22453    167144.61    72.863834    72.863834    36.352786          120   -8931.3548   -6342.1742   -46669.795   -222.25362   -1856.3469   -3708.1885    72.863834    63.101932    36.352786   -20647.775   -310674.45 
     250     715.9755    166981.13    72.840071    72.840071     36.34093          120   -11011.854   -9708.6697   -58444.159     188.4332   -2004.6803    -3567.123    72.840071    63.081352     36.34093   -26388.227   -310731.98 
     260    721.65109     166819.2    72.816518    72.816519     36.32918          120   -12463.222   -12524.641    -72235.16     190.1734   -2024.5899   -4096.5994    72.816518    63.060955     36.32918   -32407.674   -310784.02 
     270      701.667    166656.45     72.79283    72.792831    36.317361          120   -12273.552   -13422.321    -82064.17     270.7527   -1673.3281   -3446.1251     72.79283    63.040441    36.317361   -35920.014   -310787.22 
     280     678.2987    166491.69    72.768834    72.768835    36.305389          120   -11560.335    -10590.13   -83839.876    45.213198   -1366.7548   -2324.0172    72.768834    63.019659    36.305389   -35330.114   -310781.45 
     290    679.20067    166325.46    72.744607    72.744607    36.293302          120   -7967.1304   -5665.2226   -76282.866    452.77753   -1076.3456   -2352.0887    72.744607    62.998678    36.293302    -29971.74   -310821.76 
     300    680.48753    166159.99    72.720476    72.720477    36.281263          120   -3343.2085   -1028.5698   -64810.673    402.44413   -513.74194   -2275.7761    72.720476     62.97778    36.281263   -23060.817   -310861.55 
     310    670.47715    165998.03    72.696841    72.696842    36.269471          120    58.834887    1150.3693   -52472.059    353.33405   -39.650418   -2368.6001    72.696841    62.957312    36.269471   -17087.618   -310878.16 
     320    661.52035    165841.72    72.674015    72.674016    36.258083          120    1244.3533    1267.1455   -43657.169    404.62709   -787.67704   -1965.9696    72.674015    62.937544    36.258083   -13715.223   -310896.48 
     330    650.89726    165692.08    72.652152    72.652152    36.247175          120    1392.3886    1227.8057   -40748.497   -66.515328   -900.96697   -1795.3444    72.652152     62.91861    36.247175   -12709.434   -310910.74 
     340    653.85117    165549.11    72.631248    72.631249    36.236746          120   -240.68571    1401.2133   -45760.224    18.664928    -1098.517   -1941.6459    72.631248    62.900507    36.236746   -14866.565   -310950.83 
     350     647.0778    165411.61    72.611134    72.611135    36.226711          120   -757.29781    787.49233   -55228.275    36.855298   -1128.5148   -2529.1907    72.611134    62.883088    36.226711    -18399.36   -310971.98 
     360    629.80506    165277.96    72.591573    72.591574    36.216951          120   -986.41952     595.6775   -63747.694    -550.0337   -1162.1831   -2495.3839    72.591573    62.866147    36.216951   -21379.479   -310972.16 
     370    618.13775    165146.87    72.572376    72.572376    36.207373          120    296.49541     805.9408   -66510.567   -378.20806    -2266.696     -3166.97    72.572376    62.849522    36.207373    -21802.71   -310982.38 
     380    617.01655    165018.09    72.553508    72.553509     36.19796          120    2962.3386    3586.7028   -61833.714   -562.57782   -2289.4594   -2888.4713    72.553508    62.833182     36.19796   -18428.224   -311011.65 
     390    615.81169    164892.62    72.535115    72.535115    36.188783          120    5603.6861    6317.1444   -54687.055    -898.2967   -1681.6482   -2520.5624    72.535115    62.817253    36.188783   -14255.408    -311040.2 
     400    607.13538    164771.79    72.517392    72.517393    36.179941          120    8038.0671    8515.4001   -45647.098   -874.38692   -1293.5701   -2221.7803    72.517392    62.801904    36.179941   -9697.8768   -311053.73 
     410    601.42444    164656.85    72.500527    72.500527    36.171527          120    9171.6636    10680.516    -39540.82   -822.47802   -1298.8583   -2332.2624    72.500527    62.787299    36.171527   -6562.8801    -311072.9 
     420    594.88338    164548.47    72.484616    72.484616    36.163589          120    9733.6346    11295.031   -37239.462   -298.17723   -770.13306   -1549.4604    72.484616    62.773519    36.163589   -5403.5989   -311089.12 
     430    588.96011    164446.47    72.469637    72.469637    36.156115          120    9482.8037      9903.52   -39459.109    107.36535   -890.57918   -1246.7934    72.469637    62.760547    36.156115   -6690.9283   -311105.63 
     440    587.87949    164349.88    72.455444    72.455445    36.149035          120    9545.0722    8682.1737    -45010.82    236.33027   -740.11325   -736.70302    72.455444    62.748256    36.149035   -8927.8582   -311132.04 
     450    578.44678     164257.4    72.441852    72.441853    36.142253          120    9901.8658    8362.5778   -50051.258     344.4977   -537.64843   -448.05008    72.441852    62.736485    36.142253   -10595.605    -311141.8 
     460    568.81675    164168.09     72.42872    72.428721    36.135702          120    10789.822    9914.0506   -52292.725    618.26122   -875.48101   -554.16111     72.42872    62.725112    36.135702   -10529.617   -311150.58 
     470    561.91386    164081.63    72.416003    72.416003    36.129357          120    11733.662    11777.121   -51225.244    511.09735   -713.54128   -294.96212    72.416003    62.714099    36.129357   -9238.1537   -311163.18 
     480    562.01251    163998.22     72.40373    72.403731    36.123234          120    13272.166    12906.258   -46445.474    175.47038     -1129.31   -498.51668     72.40373     62.70347    36.123234   -6755.6834    -311188.6 
     490    550.04086    163918.47    72.391991    72.391992    36.117377          120     13900.73    14505.291   -40005.988    189.54769   -1239.9728   -643.18591    72.391991    62.693304    36.117377   -3866.6556   -311190.28 
     500    545.10792    163843.02    72.380883    72.380883    36.111835          120      15118.7    15956.333   -36447.466    241.47215   -909.75747   -711.91984    72.380883    62.683684    36.111835   -1790.8109   -311205.25 
     510    548.20812    163772.27    72.370463    72.370464    36.106636          120    15461.803    16589.684   -34423.962    215.34088   -281.97143    190.35079    72.370463     62.67466    36.106636   -790.82526   -311234.77 
     520    545.66336     163706.2    72.360729     72.36073     36.10178          120    15178.675    16771.673    -34680.03   -132.45786    284.22483     174.3042    72.360729     62.66623     36.10178   -909.89381   -311253.78 
     530    536.26675    163644.32    72.351612    72.351612    36.097231          120     14860.74    16885.008   -38529.176    2.8980523   -235.64743    439.68791    72.351612    62.658334    36.097231   -2261.1428   -311258.43 
     540    533.41313    163585.85    72.342993    72.342994    36.092931          120    14540.969    17056.729    -41791.22    159.00264   -1101.7741    1050.3401    72.342993    62.650871    36.092931   -3397.8408   -311275.71 
     550    525.38862    163530.08    72.334771    72.334771    36.088829          120    14279.651    17857.835   -43704.464      103.469   -1020.2642    625.13075    72.334771     62.64375    36.088829    -3855.659   -311282.82 
     560    518.19832    163476.63     72.32689     72.32689    36.084897          120    15267.834    18641.364   -42359.533      8.73602   -511.25988    772.23846     72.32689    62.636924    36.084897   -2816.7785   -311290.53 
     570    511.08774    163425.67    72.319373    72.319373    36.081147          120    16976.028    19117.905   -38746.038    589.97583   -451.55817    976.86328    72.319373    62.630415    36.081147    -884.0348   -311297.97 
     580    511.77801    163377.66    72.312291    72.312292    36.077614          120    18753.109    20561.407   -35366.028    1343.2109    650.80795    127.24839    72.312291    62.624282    36.077614    1316.1628   -311319.78 
     590    504.22392     163333.2     72.30573    72.305731     36.07434          120    20552.703    21449.135   -31054.256    711.76344    654.75271   -534.17046     72.30573      62.6186     36.07434    3649.1939   -311325.18 
     600    499.70163    163292.75    72.299761    72.299761    36.071362          120    20368.405    21794.919   -31634.251    1018.5409    1078.4221   -793.39871    72.299761     62.61343    36.071362    3509.6909    -311336.2 
     610      495.966    163256.07    72.294347    72.294348    36.068661          120    20389.433    21541.191   -32843.069    57.278791    1687.3374   -966.96118    72.294347    62.608742    36.068661    3029.1851   -311347.89 
     620    491.15124    163222.72    72.289424    72.289424    36.066205          120    20747.687    21567.407   -35443.656   -104.10959    1264.3379   -1242.0556    72.289424    62.604478    36.066205    2290.4794   -311357.41 
     630    491.56794    163192.17    72.284914    72.284915    36.063955          120    20333.151    21160.668   -37441.151   -52.631811    1327.5353    145.07921    72.284914    62.600573    36.063955    1350.8891   -311376.14 
     640    482.11832    163163.98    72.280751    72.280751    36.061878          120    21835.479    21738.637   -37932.771   -165.16494    638.67723    1501.5837    72.280751    62.596967    36.061878    1880.4485   -311376.09 
     650    480.13652    163138.09    72.276928    72.276929    36.059971          120    22092.815    21970.491   -37269.284     236.1009   -187.72467    942.81912    72.276928    62.593657    36.059971    2264.6739   -311389.55 
     660    481.30008    163114.55    72.273451    72.273452    36.058236          120    21931.356     22397.38   -34353.024    728.14373    120.87143    713.99213    72.273451    62.590645    36.058236    3325.2372   -311408.45 
     670    475.32639    163093.51    72.270344    72.270344    36.056685          120    21694.965    22562.057   -34117.947     564.5567    193.26877    522.32075    72.270344    62.587954    36.056685    3379.6918   -311414.51 
     680    465.15139     163074.9    72.267594    72.267595    36.055314          120    21134.692    22614.174   -32973.539    -88.05453   -198.12822    -169.5623    72.267594    62.585573    36.055314    3591.7758   -311410.94 
     690    468.37392    163058.61    72.265188    72.265189    36.054113          120    21061.451    22330.462   -32637.127   -249.38642    501.83954    460.42721    72.265188    62.583489    36.054113    3584.9287   -311432.83 
     700     460.4888    163044.54     72.26311    72.263111    36.053076          120    21466.672    22916.508   -31876.632    347.34743    1435.8431    283.51097     72.26311     62.58169    36.053076    4168.8492    -311433.4 
     710    458.92537    163032.71    72.261362    72.261363    36.052204          120    21335.673    22408.491   -32823.932    165.30539    737.02489   -118.70071    72.261362    62.580176    36.052204    3640.0775   -311445.59 
     720    458.26575    163022.83    72.259903    72.259903    36.051476          120    20264.895    21874.519   -34035.179    254.03398    818.08732    96.928483    72.259903    62.578912    36.051476    2701.4116   -311458.83 
     730      452.931    163014.49     72.25867     72.25867    36.050861          120    19856.896     22456.56    -34149.01    463.74133    380.58207    197.45044     72.25867    62.577844    36.050861    2721.4822   -311462.55 
     740    456.40483    163007.53    72.257641    72.257642    36.050348          120    20345.096    20688.964   -34310.937    412.23829    111.29673    339.13494    72.257641    62.576954    36.050348    2241.0412   -311482.98 
     750    447.76673    163001.81    72.256797    72.256797    36.049927          120    21240.246    21603.038   -33436.175    407.39925    521.49281    1258.8664    72.256797    62.576222    36.049927     3135.703   -311480.15 
     760    444.33848    162997.55    72.256167    72.256167    36.049612          120    22604.214    22346.643   -32637.829    255.99295    1022.0852    1765.0931    72.256167    62.575677    36.049612    4104.3425   -311487.12 
     770    442.28898    162994.99    72.255789     72.25579    36.049424          120    22594.688    22455.996   -31546.135    623.19963    785.39974    1478.8096    72.255789     62.57535    36.049424    4501.5163   -311495.85 
     780    440.26237    162994.21    72.255674    72.255674    36.049366          120    22402.224    22507.907   -31857.038    976.61527    1589.3457    1483.0386    72.255674     62.57525    36.049366     4351.031   -311504.96 
     790    434.53017     162995.1    72.255805    72.255806    36.049432          120    22934.261    21947.817   -31067.015    1746.9266    2234.3341    807.65575    72.255805    62.575363    36.049432    4605.0212   -311505.69 
     800    430.18596    162997.65    72.256182    72.256183     36.04962          120    22840.054    22720.803   -31418.028    2271.3404    2088.4337    94.057626    72.256182     62.57569     36.04962    4714.2763   -311508.28 
     810     425.8155    163001.81    72.256796    72.256797    36.049926          120    22813.381    22540.748   -32211.083    1820.5252    1759.7523   -195.74849    72.256796    62.576222    36.049926    4381.0151    -311511.2 
     820    429.68094     163007.4    72.257623    72.257623    36.050339          120    22581.079    22445.581   -32563.383    749.53821    1230.1517    427.43576    72.257623    62.576938    36.050339    4154.4255   -311529.11 
     830     423.5518    163014.27    72.258638    72.258639    36.050845          120    22399.235    22545.679   -33796.967   -164.53209     1442.615    1185.4144    72.258638    62.577817    36.050845    3715.9824   -311527.49 
     840    422.34526    163022.22    72.259813    72.259813    36.051431          120    22003.534    22349.128   -33111.018   -51.859412    1709.6646    1458.8185    72.259813    62.578834    36.051431    3747.2147   -311535.37 
     850    418.16241    163031.23    72.261143    72.261144    36.052095          120    21723.123    22796.757   -31447.674    386.16681    1554.5873    342.04215    72.261143    62.579987    36.052095     4357.402      -311537 
     860    417.30273     163041.4    72.262646    72.262647    36.052845          120    20940.764    22259.579   -31912.294    565.54008     1155.934   -522.19802    72.262646    62.581288    36.052845    3762.6828   -311544.75 
     870    414.03683    163052.52    72.264289    72.264289    36.053664          120    19892.249     21286.89   -31857.596    1172.3732    1858.3694   -711.23244    72.264289     62.58271    36.053664    3107.1812    -311547.2 
     880    412.23306    163064.29    72.266028    72.266028    36.054532          120    19327.659    20114.568   -32983.215    1308.5755    2305.3291    240.06505    72.266028    62.584216    36.054532    2153.0039   -311551.38 
     890    412.01871    163076.36     72.26781     72.26781    36.055421          120    18780.786    19826.555   -33922.842    216.28393    2834.2793    483.39077     72.26781     62.58576    36.055421    1561.4999   -311559.07 
     900    408.70188    163088.52    72.269606    72.269607    36.056317          120    19836.899    19806.141    -33399.68    373.00385    2378.6985    1352.9071    72.269606    62.587315    36.056317    2081.1201   -311560.09 
     910    408.37361    163100.94    72.271442    72.271442    36.057233          120    21019.808    20396.574   -32700.982    1047.6625    2253.7544    930.70107    72.271442    62.588905    36.057233    2905.1334   -311566.73 
     920    407.51923    163113.87    72.273351    72.273352    36.058186          120    19945.519    20474.551   -33084.378    1203.5439    1646.8058    500.87842    72.273351    62.590559    36.058186    2445.2306   -311571.64 
     930    406.33181    163127.16    72.275314    72.275314    36.059165          120    19381.989    19601.442   -33633.642    1126.7839    1684.7441    700.35835    72.275314    62.592259    36.059165    1783.2631   -311575.81 
     940    404.49345     163140.6    72.277299    72.277299    36.060155          120    19123.856    20505.063   -33406.767    878.76865    1647.4032    70.456427    72.277299    62.593978    36.060155    2074.0508   -311577.89 
     950    402.60968    163154.26    72.279316    72.279316    36.061162          120    19834.504    20393.537   -33301.313    554.97248    1354.9648   -602.37282    72.279316    62.595724    36.061162    2308.9094    -311579.4 
     960    402.15984    163168.22    72.281377    72.281378     36.06219          120    20895.662    20264.815   -33232.748    77.336212      2052.85   -616.59118    72.281377     62.59751     36.06219    2642.5762   -311584.06 
     970    400.17376    163182.62    72.283504    72.283505    36.063251          120    20574.086    21480.006   -32026.683    923.77733    1799.9305    57.236229    72.283504    62.599352    36.063251    3342.4699   -311584.74 
     980    403.19679    163197.62    72.285719    72.285719    36.064356          120    19371.194    20721.102   -33017.384    787.40509    1609.9879    320.92576    72.285719     62.60127    36.064356     2358.304   -311595.25 
     990    400.14285    163212.92    72.287977    72.287977    36.065483          120    19580.286    19726.912   -33943.094    513.38063    1067.6167   -214.44492    72.287977    62.603225    36.065483    1788.0346   -311592.97 
    1000    397.98534    163228.28    72.290244    72.290245    36.066614          120    18701.336    20263.224    -34650.19    347.44362    1962.6756    1025.4562    72.290244    62.605189    36.066614    1438.1231   -311592.45 
Loop time of 397.607 on 1 procs for 1000 steps with 14848 atoms

Performance: 0.217 ns/day, 110.446 hours/ns, 2.515 timesteps/s
100.0% CPU use with 1 MPI tasks x no OpenMP threads

MPI task timing breakdown:
Section |  min time  |  avg time  |  max time  |%varavg| %total
---------------------------------------------------------------
Pair    | 311.81     | 311.81     | 311.81     |   0.0 | 78.42
Bond    | 0.00054336 | 0.00054336 | 0.00054336 |   0.0 |  0.00
Kspace  | 14.506     | 14.506     | 14.506     |   0.0 |  3.65
Neigh   | 62.191     | 62.191     | 62.191     |   0.0 | 15.64
Comm    | 0.54953    | 0.54953    | 0.54953    |   0.0 |  0.14
Output  | 0.013562   | 0.013562   | 0.013562   |   0.0 |  0.00
Modify  | 8.3539     | 8.3539     | 8.3539     |   0.0 |  2.10
Other   |            | 0.1807     |            |       |  0.05

Nlocal:    14848 ave 14848 max 14848 min
Histogram: 1 0 0 0 0 0 0 0 0 0
Nghost:    46910 ave 46910 max 46910 min
Histogram: 1 0 0 0 0 0 0 0 0 0
Neighs:    1.00828e+07 ave 1.00828e+07 max 1.00828e+07 min
Histogram: 1 0 0 0 0 0 0 0 0 0

Total # of neighbors = 10082850
Ave neighs/atom = 679.071
Ave special neighs/atom = 0
Neighbor list builds = 185
Dangerous builds = 0
PPPM initialization ...
  using 12-bit tables for long-range coulomb (../kspace.cpp:321)
  G vector (1/distance) = 0.202605
  grid = 36 50 24
  stencil order = 5
  estimated absolute RMS force accuracy = 0.000997658
  estimated relative force accuracy = 6.92835e-05
  using double precision FFTs
  3d grid and FFT values/proc = 65395 43200
Setting up Verlet run ...
  Unit style    : metal
  Current step  : 0
  Time step     : 0.001
Per MPI rank memory allocation (min/avg/max) = 151.5 | 151.5 | 151.5 Mbytes
Step Temp Volume Cella Cellb Cellc CellGamma Pxx Pyy Pzz Pxy Pxz Pyz Lx Ly Lz Press PotEng 
       0    397.98534    163228.28    72.290244    72.290245    36.066614          120    18713.085    20275.766   -34643.666    348.11322    1962.8421     1025.466    72.290244    62.605189    36.066614    1448.3948   -311592.28 
  100000    411.33809    164363.92    72.457507    72.457508    36.150064          120    19512.814    18989.854   -37536.539    454.85536    334.24709   -579.41385    72.457507    62.750043    36.150064    322.04292    -311695.8 
Loop time of 41891 on 1 procs for 100000 steps with 14848 atoms

Performance: 0.206 ns/day, 116.364 hours/ns, 2.387 timesteps/s
90.4% CPU use with 1 MPI tasks x no OpenMP threads

MPI task timing breakdown:
Section |  min time  |  avg time  |  max time  |%varavg| %total
---------------------------------------------------------------
Pair    | 33181      | 33181      | 33181      |   0.0 | 79.21
Bond    | 0.055989   | 0.055989   | 0.055989   |   0.0 |  0.00
Kspace  | 1770.6     | 1770.6     | 1770.6     |   0.0 |  4.23
Neigh   | 6031.2     | 6031.2     | 6031.2     |   0.0 | 14.40
Comm    | 52.606     | 52.606     | 52.606     |   0.0 |  0.13
Output  | 0.00012803 | 0.00012803 | 0.00012803 |   0.0 |  0.00
Modify  | 837.11     | 837.11     | 837.11     |   0.0 |  2.00
Other   |            | 18.2       |            |       |  0.04

Nlocal:    14848 ave 14848 max 14848 min
Histogram: 1 0 0 0 0 0 0 0 0 0
Nghost:    46715 ave 46715 max 46715 min
Histogram: 1 0 0 0 0 0 0 0 0 0
Neighs:    1.00114e+07 ave 1.00114e+07 max 1.00114e+07 min
Histogram: 1 0 0 0 0 0 0 0 0 0

Total # of neighbors = 10011378
Ave neighs/atom = 674.258
Ave special neighs/atom = 0
Neighbor list builds = 15424
Dangerous builds = 0
 
All done!
Total wall time: 11:44:50
