LAMMPS (16 Mar 2018)
Reading data file ...
  triclinic box = (0 0 0) to (9.208 7.97436 18.376) with tilt (-4.604 0 0)
  1 by 1 by 1 MPI processor grid
  reading atoms ...
  116 atoms
Finding 1-2 1-3 1-4 neighbors ...
  special bond factors lj:   0          0          0         
  special bond factors coul: 0          0          0         
  0 = max # of 1-2 neighbors
  0 = max # of 1-3 neighbors
  0 = max # of 1-4 neighbors
  1 = max # of special neighbors
Replicating atoms ...
  triclinic box = (0 0 0) to (73.664 63.7949 36.752) with tilt (-36.832 0 0)
  1 by 1 by 1 MPI processor grid
  14848 atoms
Finding 1-2 1-3 1-4 neighbors ...
  special bond factors lj:   0          0          0         
  special bond factors coul: 0          0          0         
  0 = max # of 1-2 neighbors
  0 = max # of 1-3 neighbors
  0 = max # of 1-4 neighbors
  1 = max # of special neighbors
  Time spent = 0.00285912 secs
PPPM initialization ...
WARNING: System is not charge neutral, net charge = -0.2048 (../kspace.cpp:302)
  using 12-bit tables for long-range coulomb (../kspace.cpp:321)
  G vector (1/distance) = 0.201681
  grid = 36 50 24
  stencil order = 5
  estimated absolute RMS force accuracy = 0.00105653
  estimated relative force accuracy = 7.33721e-05
  using double precision FFTs
  3d grid and FFT values/proc = 65395 43200
Neighbor list info ...
  update every 1 steps, delay 0 steps, check yes
  max neighbors/atom: 2000, page size: 100000
  master list distance cutoff = 15.3
  ghost atom cutoff = 15.3
  binsize = 7.65, bins = 15 9 5
  3 neighbor lists, perpetual/occasional/extra = 3 0 0
  (1) pair morse, perpetual
      attributes: half, newton on
      pair build: half/bin/newton/tri
      stencil: half/bin/3d/newton/tri
      bin: standard
  (2) pair buck, perpetual, copy from (1)
      attributes: half, newton on
      pair build: copy
      stencil: none
      bin: none
  (3) pair lj/cut/coul/long, perpetual, copy from (1)
      attributes: half, newton on
      pair build: copy
      stencil: none
      bin: none
Setting up Verlet run ...
  Unit style    : metal
  Current step  : 0
  Time step     : 0.001
Per MPI rank memory allocation (min/avg/max) = 145.7 | 145.7 | 145.7 Mbytes
Step Temp Volume Cella Cellb Cellc CellGamma Pxx Pyy Pzz Pxy Pxz Pyz Lx Ly Lz Press PotEng 
       0          430    172711.88       73.664    73.664001       36.752          120   -206377.87   -206450.57   -277426.81     35.15724   -10.935672    14.623836       73.664    63.794896       36.752   -230085.08   -309191.56 
      10    421.44398    172665.46      73.6574    73.657401    36.748707          120   -206023.15    -206106.6   -252964.38    133.41428   -32.753701   -207.50348      73.6574    63.789181    36.748707   -221698.04   -309199.77 
      20    703.03718    172529.67    73.638086    73.638086    36.739071          120   -199850.12   -199548.29   -192327.64    42.661051   -280.54545   -462.20988    73.638086    63.772454    36.739071   -197242.02   -309766.42 
      30    740.63373    172315.72    73.607635    73.607635    36.723878          120   -166905.65   -166650.31   -113043.87   -183.05601    -852.0795   -510.03474    73.607635    63.746082    36.723878   -148866.61    -309880.4 
      40    521.20642    172045.39    73.569123    73.569123    36.704664          120   -117662.74   -118074.42   -32983.629   -868.26565   -1158.2285    -524.6671    73.569123     63.71273    36.704664   -89573.596   -309484.92 
      50    616.38634    171745.42     73.52634    73.526341    36.683319          120    -80233.36   -81129.115   -6110.9725   -635.40654   -1092.3044   -642.40923     73.52634    63.675679    36.683319   -55824.482   -309680.32 
      60    890.86848    171434.11    73.481887    73.481888    36.661142          120   -63097.593   -62837.467   -48752.933   -872.49607   -1941.7527   -518.92655    73.481887    63.637182    36.661142   -58229.331   -310228.17 
      70    1043.5892    171116.96    73.436546    73.436547     36.63852          120   -53353.682   -53458.866   -112520.14   -1850.3979   -2470.7266   -701.33716    73.436546    63.597915     36.63852   -73110.896   -310567.39 
      80    913.69323    170794.22    73.390349    73.390349    36.615472          120   -48373.188   -49828.645    -158002.7   -1881.4701   -2621.1096   -7.0359295    73.390349    63.557907    36.615472   -85401.512      -310371 
      90    664.53997    170467.18    73.343476    73.343476    36.592086          120   -44336.648   -45054.312   -171048.99     -2058.51   -3074.8204   -803.73372    73.343476    63.517314    36.592086   -86813.318   -309936.94 
     100    680.68971    170141.28    73.296706    73.296707    36.568752          120   -28320.377   -28572.168   -150023.95   -1875.3457   -2803.1003   -1152.8761    73.296706     63.47681    36.568752   -68972.163   -310004.66 
     110     844.2492    169827.29     73.25159     73.25159    36.546243          120   -8336.4239   -8839.0696   -108793.52   -1891.2453   -1375.4908   -1456.3613     73.25159    63.437738    36.546243   -41989.672   -310359.51 
     120    862.44273    169536.72    73.209788    73.209789    36.525387          120    2450.3707    2409.8533   -60892.889   -1851.1828    -836.8245   -1594.6008    73.209788    63.401537    36.525387   -18677.555   -310438.77 
     130    767.92447    169276.63    73.172331    73.172332      36.5067          120    2061.1436    3242.6066   -23291.467   -1601.2932   -922.10583   -1736.0257    73.172331    63.369098      36.5067   -5995.9055   -310297.17 
     140    717.72012    169047.83    73.139349     73.13935    36.490244          120    -2143.727   -2222.7378   -10053.583   -1034.8972   -863.98788   -1912.9125    73.139349    63.340535    36.490244   -4806.6825   -310233.58 
     150    758.22526    168845.77    73.110198    73.110198      36.4757          120   -9762.7189   -8891.0007   -29470.938   -1769.5959   -494.03151   -1496.3441    73.110198    63.315289      36.4757   -16041.553   -310344.37 
     160    819.09853    168661.83    73.083639    73.083639     36.46245          120   -19181.534   -18026.268   -62639.434   -1543.4287   -1283.4126   -1843.8725    73.083639    63.292288     36.46245   -33282.412   -310502.22 
     170    815.14422    168486.37    73.058287    73.058287    36.449801          120   -23696.412   -22323.504   -92228.705   -917.61847    -2116.682     -1865.91    73.058287    63.270333    36.449801   -46082.874   -310539.49 
     180    746.49052    168312.37    73.033128    73.033129    36.437249          120    -22177.21    -20156.71   -110681.31   -1016.1295   -2507.5195   -2036.4257    73.033128    63.248545    36.437249   -51005.077   -310452.24 
     190    716.70754     168136.5    73.007682    73.007682    36.424554          120   -18351.036   -16215.464    -111568.2   -501.49786   -2379.5459    -2081.206    73.007682    63.226508    36.424554   -48711.568   -310434.97 
     200    748.31755    167958.59    72.981923    72.981923    36.411702          120   -13921.964   -13438.011   -94998.283   -956.90602   -2061.1832   -2052.5142    72.981923      63.2042    36.411702   -40786.086   -310535.49 
     210    764.06739    167780.68    72.956145    72.956146    36.398841          120    -9306.627   -9284.8843    -73101.71   -1219.8005   -1807.2775   -1922.0268    72.956145    63.181876    36.398841   -30564.407   -310606.42 
     220    747.48372    167605.66    72.930768    72.930768     36.38618          120   -6643.5774   -4942.7019   -55084.588   -1184.6326   -1188.0465   -2804.6139    72.930768    63.159898     36.38618   -22223.622   -310613.97 
     230    726.91129    167435.66    72.906102    72.906103    36.373874          120   -6610.1105   -5125.5039   -45931.164   -628.20662   -691.57768   -3524.7684    72.906102    63.138537    36.373874   -19222.259   -310612.26 
     240    721.54742    167270.97    72.882191    72.882192    36.361945          120    -9634.304   -6911.8157    -47694.43    -273.7152   -1765.0242   -3674.0764    72.882191     63.11783    36.361945   -21413.517   -310639.21 
     250    730.59644     167110.1    72.858819    72.858819    36.350284          120   -12210.837   -10381.838   -59505.983    35.030385   -2043.3965   -3555.4894    72.858819    63.097589    36.350284   -27366.219   -310694.92 
     260    737.40395    166950.51    72.835618    72.835618    36.338708          120   -13466.563   -13077.791   -73024.377   -10.865403   -2009.4132     -4064.19    72.835618    63.077496    36.338708   -33189.577   -310748.52 
     270    718.42758    166789.93    72.812258    72.812259    36.327054          120    -12849.54   -14121.553   -82620.154    23.456303   -1719.7834   -3380.2365    72.812258    63.057266    36.327054   -36530.416   -310752.99 
     280    695.76078    166627.26    72.788579     72.78858     36.31524          120   -12071.994   -11145.339   -84517.825   -57.549511   -1381.1634   -2336.4293    72.788579     63.03676     36.31524    -35911.72   -310748.08 
     290    695.51549    166462.99    72.764653    72.764653    36.303303          120   -8416.1301   -5989.7413   -77127.411    511.46644   -944.18333   -2400.1013    72.764653    63.016038    36.303303   -30511.094   -310785.76 
     300    696.98774    166299.26    72.740787    72.740788    36.291396          120   -3813.7282   -1588.7463   -65653.424    572.97938     -725.295   -2134.3337    72.740787     62.99537    36.291396   -23685.299   -310824.99 
     310    687.61816    166138.63     72.71736    72.717361    36.279708          120   -628.21121    626.39537   -53837.419    587.39424   -285.36349   -2570.3835     72.71736    62.975082    36.279708   -17946.412   -310842.48 
     320     676.6854    165983.09     72.69466     72.69466    36.268383          120    333.31708    588.08969   -45039.559    591.06695   -1125.6237   -2149.5954     72.69466    62.955423    36.268383   -14706.051   -310857.05 
     330     666.6865    165833.61    72.672832    72.672832    36.257492          120    490.19603    681.75612   -41918.103     213.7668   -1052.7845   -2099.2225    72.672832    62.936519    36.257492    -13582.05   -310871.81 
     340    669.03934    165690.26    72.651885    72.651886    36.247042          120   -1081.8606     993.4699   -46619.735    87.032468   -1221.3967   -2277.2134    72.651885    62.918379    36.247042   -15569.375    -310910.1 
     350    663.86736    165552.02    72.631675    72.631675    36.236958          120   -1460.3309    525.81074   -55921.328   -179.71722   -1586.2851   -2636.4567    72.631675    62.900876    36.236958   -18951.949   -310934.29 
     360    648.46589    165417.41    72.611984    72.611985    36.227135          120   -1916.4787    166.15367   -64568.927   -678.79848   -1635.0073   -2733.3027    72.611984    62.883824    36.227135   -22106.417   -310937.53 
     370    634.31544    165285.19    72.592632    72.592633     36.21748          120   -882.10596    476.50808   -66911.352   -434.94747    -2899.165   -3412.2396    72.592632    62.867064     36.21748   -22438.983   -310942.95 
     380    634.38561    165155.16    72.573591    72.573591     36.20798          120    1488.4808    3067.7222    -62436.99   -643.07294   -2857.0039   -3329.7251    72.573591    62.850574     36.20798   -19293.596   -310974.35 
     390    632.38821    165028.22    72.554992    72.554993    36.198701          120    4364.7397    5595.6206   -55646.927   -941.13743   -1926.2877   -3002.6313    72.554992    62.834467    36.198701   -15228.855   -311001.28 
     400     625.1801    164905.64    72.537024    72.537025    36.189736          120    7024.3076    7895.0855   -46777.049   -979.18743   -1314.0399   -3080.4265    72.537024    62.818906    36.189736   -10619.219   -311017.25 
     410    621.52925    164788.67    72.519869     72.51987    36.181177          120    7791.2694    9375.2807   -40402.412   -1196.2629   -1455.0464   -2835.2811    72.519869     62.80405    36.181177   -7745.2871   -311039.97 
     420    615.62523    164677.87    72.503612    72.503613    36.173066          120    8144.4983    9978.7811   -38490.648   -643.12969   -1718.7967   -2294.4908    72.503612    62.789971    36.173066   -6789.1229   -311057.99 
     430    610.73383    164573.07    72.488229    72.488229    36.165391          120    7781.4772    8866.8532   -40656.182    338.34927   -1740.8379   -1747.5096    72.488229    62.776648    36.165391   -8002.6173   -311076.85 
     440    604.47065     164473.4    72.473591    72.473592    36.158089          120     7921.174    8062.9758   -45231.581    410.17958   -2072.4666   -1059.9568    72.473591    62.763972    36.158089   -9749.1437   -311092.76 
     450    596.21992    164377.78    72.459545    72.459545     36.15108          120    8269.8579    8184.2641   -50141.409    40.742134   -1719.3687   -917.40763    72.459545    62.751807     36.15108   -11229.096   -311104.59 
     460    586.26902    164285.38    72.445965    72.445965    36.144305          120    9218.0976     9557.992   -52362.482    493.27742   -1647.9544   -1067.6693    72.445965    62.740047    36.144305   -11195.464   -311112.74 
     470    579.47711     164195.9    72.432809     72.43281    36.137742          120    11026.293    11738.568   -51847.323    923.40946   -1456.9185   -639.74174    72.432809    62.728654    36.137742   -9694.1543   -311125.32 
     480    580.62063    164109.58    72.420114    72.420115    36.131408          120    12734.963      12851.2   -47384.642    126.94932   -1756.0468   -723.98311    72.420114    62.717659    36.131408   -7266.1595      -311153 
     490    572.53837    164026.97    72.407961    72.407961    36.125344          120    13223.924    14858.928   -41220.384    479.49156     -2029.04   -711.19965    72.407961    62.707134    36.125344   -4379.1775   -311161.76 
     500    564.94181    163948.72    72.396445    72.396446    36.119599          120    15217.254    16698.594   -37329.322    649.65265   -1593.2448   -369.95176    72.396445    62.697161    36.119599   -1804.4914   -311171.56 
     510    566.01369    163875.33    72.385641    72.385641    36.114209          120    15159.384    17296.683   -34620.189     738.9436   -963.59735    163.46255    72.385641    62.687805    36.114209   -721.37393   -311197.05 
     520    561.55149    163806.79    72.375547    72.375548    36.109173          120    14522.115    17810.139    -34711.59    99.428957   -942.15186    247.21242    72.375547    62.679063    36.109173   -793.11176   -311211.95 
     530     555.1744    163742.62    72.366095    72.366096    36.104457          120    15066.429    16708.691   -38750.997   -444.88834   -1375.3856    268.72786    72.366095    62.670878    36.104457   -2325.2926   -311222.67 
     540    556.19852    163682.01    72.357165    72.357165    36.100002          120    14997.906    17165.474   -41755.864   -242.33344   -1824.0294    315.74315    72.357165    62.663143    36.100002   -3197.4948   -311248.13 
     550    548.84251    163624.34    72.348667    72.348668    36.095762          120    15594.649    17779.819   -42351.619    73.732683    -1962.934   -186.25971    72.348667    62.655784    36.095762   -2992.3836   -311256.03 
     560    534.31796    163569.44    72.340573    72.340574    36.091724          120    16532.769    18746.695   -41061.217    78.166357   -1084.9386    55.772098    72.340573    62.648775    36.091724   -1927.2509   -311249.85 
     570    531.63916    163517.43    72.332905    72.332906    36.087898          120    17853.134    19493.508   -38239.555    489.25911    -1016.343    815.97697    72.332905    62.642134    36.087898   -297.63777   -311266.28 
     580    529.61278    163468.65    72.325712    72.325712    36.084309          120    20247.928    20939.412   -35755.896     1539.353    106.89421    7.8930859    72.325712    62.635904    36.084309    1810.4816   -311282.78 
     590    520.82615    163423.55     72.31906    72.319061    36.080991          120     20398.95    21781.729    -32236.18    1311.2234    94.082083     -966.182     72.31906    62.630144    36.080991    3314.8328   -311285.77 
     600    515.76122    163382.36    72.312984    72.312984    36.077959          120    19649.614    21445.539   -31816.147    1101.6924   -110.64172   -201.67443    72.312984    62.624882    36.077959     3093.002   -311295.43 
     610    516.49747    163344.74    72.307433    72.307434     36.07519          120    19647.179    20651.138   -33942.528    618.50007    38.793966    -183.5127    72.307433    62.620075     36.07519    2118.5965   -311315.69 
     620    510.14897    163310.16    72.302331    72.302332    36.072644          120    21182.237    20660.249   -35459.887    741.73732    412.09746   -805.17777    72.302331    62.615656    36.072644    2127.5328   -311321.48 
     630    512.55462    163278.35    72.297636    72.297637    36.070302          120    21083.318    20038.923   -36192.745    170.95772    188.02939    61.324226    72.297636     62.61159    36.070302    1643.1655   -311344.53 
     640    500.46824    163248.98    72.293301    72.293301    36.068139          120    22312.198    20123.983   -37156.638    106.87774   -15.320248    675.20769    72.293301    62.607836    36.068139    1759.8478   -311339.53 
     650    498.24676     163221.9    72.289303    72.289304    36.066145          120    22210.312    21789.066   -37001.396    986.35567   -788.11385    845.25285    72.289303    62.604374    36.066145    2332.6605   -311352.88 
     660    500.57951    163197.15    72.285649    72.285649    36.064321          120     21515.63    22232.894   -36157.326    1079.6805   -769.65971    869.21209    72.285649    62.601209    36.064321    2530.3993   -311375.14 
     670     492.4444    163174.65    72.282326    72.282327    36.062664          120    21011.322    21223.289   -35118.745    588.75878   -31.875836    586.51139    72.282326    62.598331    36.062664    2371.9552   -311376.25 
     680    485.87093    163154.23    72.279311    72.279312     36.06116          120    20897.141    21192.234   -34218.954    124.81626   -535.52962   -24.123335    72.279311    62.595721     36.06116    2623.4737   -311379.58 
     690    480.47519    163135.83    72.276595    72.276595    36.059804          120    20564.664    21349.603   -33712.086     863.4939   -661.28088   -1059.4971    72.276595    62.593368    36.059804    2734.0605   -311385.02 
     700    479.47332    163119.41    72.274169    72.274169    36.058594          120    20349.023    21387.586   -32394.558    1351.2254    316.14583   -900.02544    72.274169    62.591267    36.058594    3114.0169   -311397.92 
     710    476.39735    163104.89    72.272025    72.272025    36.057524          120    19469.157    21082.903   -33449.857    941.75487    135.25795   -971.72917    72.272025     62.58941    36.057524    2367.4012   -311406.99 
     720    479.32875    163091.97    72.270117    72.270117    36.056572          120    18897.036    20750.092   -33783.157    1214.2475   -47.247808   -286.67438    72.270117    62.587758    36.056572     1954.657   -311427.87 
     730    474.98522    163080.42     72.26841    72.268411    36.055721          120    19553.878    21077.976   -34371.198    648.40804    162.84477    31.179269     72.26841     62.58628    36.055721    2086.8854   -311433.85 
     740    466.54294    163070.18    72.266898    72.266899    36.054966          120    20624.297    20539.508   -34231.517    120.20086   -209.81791   -255.62586    72.266898     62.58497    36.054966    2310.7627   -311431.43 
     750    468.81019    163061.26    72.265579     72.26558    36.054308          120    20708.925    20020.646   -34010.141    597.24601    140.22678    325.76563    72.265579    62.583828    36.054308    2239.8099   -311449.42 
     760    465.96509    163053.61    72.264449     72.26445    36.053745          120    22062.107    21551.205   -32843.343    783.33361    611.62332    804.50425    72.264449     62.58285    36.053745    3589.9895   -311457.27 
     770     462.3731    163047.58    72.263558    72.263559      36.0533          120    22671.141    22417.607   -31647.043   -84.587891    149.36298   -324.41359    72.263558    62.582078      36.0533    4480.5686   -311462.95 
     780    453.83989    163043.41    72.262943    72.262943    36.052993          120    22432.643    23014.312    -31380.44    112.41874   -125.16954   -813.16138    72.262943    62.581545    36.052993    4688.8386   -311458.53 
     790     452.0743    163041.06    72.262595    72.262596     36.05282          120     21527.12    21728.625   -31889.908     468.9018    1066.7865   -1194.4339    72.262595    62.581244     36.05282    3788.6123   -311466.94 
     800    448.67134    163040.17    72.262465    72.262465    36.052754          120    22115.069    20860.381   -32515.461    398.42275    1448.4477   -1306.8878    72.262465    62.581131    36.052754    3486.6629   -311472.13 
     810     451.6269    163040.58    72.262524    72.262525    36.052784          120    23261.097    21363.326   -33305.366    925.02806    1334.9698   -1183.6823    72.262524    62.581182    36.052784     3773.019   -311488.41 
     820    445.81279     163042.3    72.262779    72.262779    36.052911          120    23393.895    22426.856   -32602.146    701.74809     281.6425   -836.22414    72.262779    62.581403    36.052911    4406.2015   -311487.59 
     830    443.41484    163045.49     72.26325     72.26325    36.053146          120    23556.726    22980.708   -32453.558   -194.15665   -61.822395    -96.60879     72.26325    62.581811    36.053146    4694.6251    -311493.7 
     840     440.2645    163050.17    72.263942    72.263943    36.053492          120    22931.204     23109.46   -33130.915   -17.336729   -272.69237   -383.31926    72.263942     62.58241    36.053492    4303.2494   -311497.69 
     850    436.49657     163056.2    72.264832    72.264833    36.053936          120    22724.373    22681.288   -32527.692    859.50731   -154.75788   -234.03873    72.264832    62.583181    36.053936    4292.6561   -311500.17 
     860    433.83652    163063.46    72.265905    72.265906    36.054471          120    23035.787    21552.257   -32994.213     583.2518   -330.40265   -1006.9426    72.265905     62.58411    36.054471    3864.6102    -311503.9 
     870    434.90304    163071.78    72.267134    72.267134    36.055084          120    22322.789    21631.201   -33106.499    899.35782    68.071913   -1961.1409    72.267134    62.585174    36.055084    3615.8302   -311514.39 
     880    434.30323    163081.01    72.268498    72.268499    36.055765          120    21756.792     21859.71   -33108.362    1559.3456    307.32446   -1361.0834    72.268498    62.586356    36.055765    3502.7133   -311521.91 
     890    430.56288    163091.09    72.269986    72.269987    36.056507          120    21632.541     21334.47   -33265.754    592.19643    520.71565   -1011.7022    72.269986    62.587645    36.056507    3233.7523   -311522.13 
     900    433.17413    163101.91    72.271585    72.271585    36.057304          120    21765.703     22542.29   -33326.279    47.494773     1185.247    410.98438    72.271585    62.589029    36.057304    3660.5714   -311534.28 
     910    427.93663    163113.59    72.273309     72.27331    36.058165          120    22239.504    23607.763   -33113.146    619.91829    935.35164    696.92772    72.273309    62.590522    36.058165     4244.707   -311531.72 
     920    426.72947    163126.26    72.275181    72.275181    36.059099          120    22315.929    23288.895   -33271.718    646.98251    381.04595    293.89419    72.275181    62.592143    36.059099    4111.0351   -311536.25 
     930    427.10523    163139.85    72.277189    72.277189      36.0601          120    21993.405    22865.899    -34146.16   -27.765987    -27.51955    87.026275    72.277189    62.593882      36.0601    3571.0482   -311543.26 
     940    422.41397    163154.16    72.279302    72.279302    36.061155          120     21615.67    22388.321   -34323.132    592.73647   -436.71321    566.73261    72.279302    62.595712    36.061155     3226.953   -311539.88 
     950    424.61048    163169.02    72.281495    72.281496    36.062249          120     20945.44    21414.238   -34529.859    167.04893   -356.49056    689.97048    72.281495    62.597612    36.062249    2609.9398      -311550 
     960    417.54105    163184.24    72.283743    72.283744     36.06337          120    21363.361    21292.241   -33621.453    221.23129   -459.67367    851.02798    72.283743    62.599558     36.06337     3011.383   -311541.13 
     970    421.03382    163199.92    72.286058    72.286058    36.064525          120    21457.908    22195.138   -33769.858     622.3768    -786.2812    396.20828    72.286058    62.601563    36.064525     3294.396   -311552.49 
     980    420.06423    163216.12    72.288449     72.28845    36.065719          120    21054.884    22042.784   -34057.457    601.51282   -348.04706    928.28007    72.288449    62.603634    36.065719    3013.4034   -311554.54 
     990     420.8154    163232.76    72.290906    72.290906    36.066944          120    20942.366    21463.782   -33859.628    1241.3378    -274.7885    779.68128    72.290906    62.605761    36.066944      2848.84   -311559.77 
    1000    418.89626    163249.72     72.29341    72.293411    36.068194          120    20267.804    20846.861   -35804.363     1419.919    232.37623    -73.70388     72.29341    62.607931    36.068194    1770.1008   -311559.82 
Loop time of 309.396 on 1 procs for 1000 steps with 14848 atoms

Performance: 0.279 ns/day, 85.943 hours/ns, 3.232 timesteps/s
100.0% CPU use with 1 MPI tasks x no OpenMP threads

MPI task timing breakdown:
Section |  min time  |  avg time  |  max time  |%varavg| %total
---------------------------------------------------------------
Pair    | 240.31     | 240.31     | 240.31     |   0.0 | 77.67
Bond    | 0.00013041 | 0.00013041 | 0.00013041 |   0.0 |  0.00
Kspace  | 10.834     | 10.834     | 10.834     |   0.0 |  3.50
Neigh   | 51.449     | 51.449     | 51.449     |   0.0 | 16.63
Comm    | 0.38575    | 0.38575    | 0.38575    |   0.0 |  0.12
Output  | 0.010485   | 0.010485   | 0.010485   |   0.0 |  0.00
Modify  | 6.3129     | 6.3129     | 6.3129     |   0.0 |  2.04
Other   |            | 0.09541    |            |       |  0.03

Nlocal:    14848 ave 14848 max 14848 min
Histogram: 1 0 0 0 0 0 0 0 0 0
Nghost:    46848 ave 46848 max 46848 min
Histogram: 1 0 0 0 0 0 0 0 0 0
Neighs:    1.00818e+07 ave 1.00818e+07 max 1.00818e+07 min
Histogram: 1 0 0 0 0 0 0 0 0 0

Total # of neighbors = 10081798
Ave neighs/atom = 679
Ave special neighs/atom = 0
Neighbor list builds = 186
Dangerous builds = 0
PPPM initialization ...
  using 12-bit tables for long-range coulomb (../kspace.cpp:321)
  G vector (1/distance) = 0.202602
  grid = 36 50 24
  stencil order = 5
  estimated absolute RMS force accuracy = 0.000997791
  estimated relative force accuracy = 6.92927e-05
  using double precision FFTs
  3d grid and FFT values/proc = 65395 43200
Setting up Verlet run ...
  Unit style    : metal
  Current step  : 0
  Time step     : 0.001
Per MPI rank memory allocation (min/avg/max) = 151.5 | 151.5 | 151.5 Mbytes
Step Temp Volume Cella Cellb Cellc CellGamma Pxx Pyy Pzz Pxy Pxz Pyz Lx Ly Lz Press PotEng 
       0    418.89626    163249.72     72.29341    72.293411    36.068194          120    20279.804     20859.04   -35797.795    1420.2463    232.50501   -73.644668     72.29341    62.607931    36.068194    1780.3494   -311559.64 
  100000     428.5666     164523.1    72.480891    72.480892     36.16173          120    21587.557    16949.221   -39675.469   -12.422545    927.31065   -1086.3649    72.480891    62.770294     36.16173   -379.56367   -311670.06 
Loop time of 28941.8 on 1 procs for 100000 steps with 14848 atoms

Performance: 0.299 ns/day, 80.394 hours/ns, 3.455 timesteps/s
100.0% CPU use with 1 MPI tasks x no OpenMP threads

MPI task timing breakdown:
Section |  min time  |  avg time  |  max time  |%varavg| %total
---------------------------------------------------------------
Pair    | 22857      | 22857      | 22857      |   0.0 | 78.97
Bond    | 0.015647   | 0.015647   | 0.015647   |   0.0 |  0.00
Kspace  | 1074.8     | 1074.8     | 1074.8     |   0.0 |  3.71
Neigh   | 4340.8     | 4340.8     | 4340.8     |   0.0 | 15.00
Comm    | 36.197     | 36.197     | 36.197     |   0.0 |  0.13
Output  | 9.8944e-05 | 9.8944e-05 | 9.8944e-05 |   0.0 |  0.00
Modify  | 624.07     | 624.07     | 624.07     |   0.0 |  2.16
Other   |            | 9.266      |            |       |  0.03

Nlocal:    14848 ave 14848 max 14848 min
Histogram: 1 0 0 0 0 0 0 0 0 0
Nghost:    46642 ave 46642 max 46642 min
Histogram: 1 0 0 0 0 0 0 0 0 0
Neighs:    1.00025e+07 ave 1.00025e+07 max 1.00025e+07 min
Histogram: 1 0 0 0 0 0 0 0 0 0

Total # of neighbors = 10002454
Ave neighs/atom = 673.657
Ave special neighs/atom = 0
Neighbor list builds = 15830
Dangerous builds = 0
 
All done!
Total wall time: 8:07:32
