LAMMPS (16 Mar 2018)
Reading data file ...
  triclinic box = (0 0 0) to (9.208 7.97436 18.376) with tilt (-4.604 0 0)
  1 by 1 by 1 MPI processor grid
  reading atoms ...
  116 atoms
Finding 1-2 1-3 1-4 neighbors ...
  special bond factors lj:   0          0          0         
  special bond factors coul: 0          0          0         
  0 = max # of 1-2 neighbors
  0 = max # of 1-3 neighbors
  0 = max # of 1-4 neighbors
  1 = max # of special neighbors
Replicating atoms ...
  triclinic box = (0 0 0) to (73.664 63.7949 36.752) with tilt (-36.832 0 0)
  1 by 1 by 1 MPI processor grid
  14848 atoms
Finding 1-2 1-3 1-4 neighbors ...
  special bond factors lj:   0          0          0         
  special bond factors coul: 0          0          0         
  0 = max # of 1-2 neighbors
  0 = max # of 1-3 neighbors
  0 = max # of 1-4 neighbors
  1 = max # of special neighbors
  Time spent = 0.00272894 secs
PPPM initialization ...
WARNING: System is not charge neutral, net charge = -0.2048 (../kspace.cpp:302)
  using 12-bit tables for long-range coulomb (../kspace.cpp:321)
  G vector (1/distance) = 0.201681
  grid = 36 50 24
  stencil order = 5
  estimated absolute RMS force accuracy = 0.00105653
  estimated relative force accuracy = 7.33721e-05
  using double precision FFTs
  3d grid and FFT values/proc = 65395 43200
Neighbor list info ...
  update every 1 steps, delay 0 steps, check yes
  max neighbors/atom: 2000, page size: 100000
  master list distance cutoff = 15.3
  ghost atom cutoff = 15.3
  binsize = 7.65, bins = 15 9 5
  3 neighbor lists, perpetual/occasional/extra = 3 0 0
  (1) pair morse, perpetual
      attributes: half, newton on
      pair build: half/bin/newton/tri
      stencil: half/bin/3d/newton/tri
      bin: standard
  (2) pair buck, perpetual, copy from (1)
      attributes: half, newton on
      pair build: copy
      stencil: none
      bin: none
  (3) pair lj/cut/coul/long, perpetual, copy from (1)
      attributes: half, newton on
      pair build: copy
      stencil: none
      bin: none
Setting up Verlet run ...
  Unit style    : metal
  Current step  : 0
  Time step     : 0.001
Per MPI rank memory allocation (min/avg/max) = 145.7 | 145.7 | 145.7 Mbytes
Step Temp Volume Cella Cellb Cellc CellGamma Pxx Pyy Pzz Pxy Pxz Pyz Lx Ly Lz Press PotEng 
       0          420    172711.88       73.664    73.664001       36.752          120   -206497.69   -206568.53    -277545.1    34.369853   -10.681455    14.283709       73.664    63.794896       36.752   -230203.77   -309191.56 
      10     416.7315    172664.33    73.657239    73.657239    36.748627          120   -206286.68   -206370.39   -253242.28    132.67015   -32.667994   -205.55017    73.657239    63.789041    36.748627   -221966.45   -309210.35 
      20    697.49893    172525.16    73.637445    73.637446    36.738751          120   -200318.01   -200009.86   -192687.27    42.274279   -279.57297   -456.46955    73.637445    63.771899    36.738751   -197671.71   -309776.07 
      30    733.46243    172305.86     73.60623    73.606231    36.723178          120   -167708.63   -167442.79   -113408.47   -184.72674   -850.50917   -507.10312     73.60623    63.744866    36.723178   -149519.96    -309888.1 
      40    514.34358    172028.74    73.566748    73.566749     36.70348          120   -118618.77   -119014.76   -33346.771   -851.63568    -1157.793   -523.30755    73.566748    63.710674     36.70348   -90326.767   -309493.92 
      50    608.92734    171721.35    73.522905    73.522906    36.681606          120    -80907.09   -81783.665   -6098.0188   -640.07236   -1100.4445   -640.92497    73.522905    63.672704    36.681606   -56262.925   -309688.99 
      60     884.7734    171402.81    73.477416    73.477417    36.658911          120   -63360.849   -63110.894    -48472.76   -860.23716   -1949.1231   -510.67208    73.477416     63.63331    36.658911   -58314.834   -310240.09 
      70    1038.7574    171079.11    73.431132    73.431133    36.635819          120   -53335.923    -53419.56   -112224.77   -1839.4068   -2467.3925   -689.78815    73.431132    63.593227    36.635819   -72993.418   -310582.68 
      80    908.42014    170750.75    73.384121    73.384122    36.612365          120    -48163.03   -49577.851    -157781.9   -1873.6071   -2637.2154  -0.85859013    73.384121    63.552514    36.612365   -85174.259   -310386.51 
      90    658.23223    170419.12    73.336583    73.336583    36.588647          120   -44051.848   -44773.567   -170916.22   -2057.0358    -3089.697   -776.66131    73.336583    63.511344    36.588647   -86580.546   -309951.03 
     100    674.15548    170089.74    73.289305    73.289305    36.565059          120   -28068.181   -28322.639   -149927.55   -1867.5497   -2819.1023    -1125.566    73.289305      63.4704    36.565059   -68772.789   -310018.78 
     110    838.32988    169773.42    73.243843    73.243844    36.542378          120   -8088.2914   -8580.8384   -108613.36   -1883.8767   -1414.5659   -1416.7626    73.243843     63.43103    36.542378   -41760.829   -310375.25 
     120    856.05411    169481.59    73.201853    73.201853    36.521428          120    2723.7567    2682.6728   -60564.819   -1845.8658   -875.43392   -1575.3567    73.201853    63.394665    36.521428    -18386.13   -310454.19 
     130     761.0218    169221.14    73.164335    73.164336     36.50271          120    2301.9139    3490.9394    -22838.57   -1609.7348   -944.15834   -1717.2714    73.164335    63.362173     36.50271   -5681.9057   -310311.98 
     140    710.57169    168992.57     73.13138     73.13138    36.486268          120   -1926.7003   -1976.5702    -9627.732   -1055.4841   -885.73284   -1879.2304     73.13138    63.333633    36.486268   -4510.3342   -310248.31 
     150    751.56433    168791.02    73.102295    73.102295    36.471757          120   -9577.2213   -8718.9213   -29194.637   -1770.0992   -522.99123    -1444.411    73.102295    63.308445    36.471757    -15830.26   -310360.34 
     160    812.75408    168607.54    73.075796    73.075797    36.458537          120   -19116.305    -17939.62   -62529.009    -1550.064   -1295.4295   -1770.1831    73.075796    63.285496    36.458537   -33194.978   -310519.15 
     170    807.95473     168432.2    73.050457    73.050457    36.445895          120   -23623.107   -22170.926   -92168.097   -908.75879   -2158.6193   -1800.9378    73.050457    63.263552    36.445895   -45987.377   -310555.16 
     180    738.95879    168257.86    73.025244    73.025245    36.433316          120   -21982.951   -20018.103   -110550.77    -1007.896   -2561.9065   -1994.9857    73.025244    63.241717    36.433316   -50850.609   -310467.97 
     190    709.32584     168081.2    72.999677    72.999677     36.42056          120   -18064.753   -16122.409   -111345.99   -477.62533   -2430.5266   -2071.1294    72.999677    63.219575     36.42056    -48511.05   -310451.24 
     200    741.40275    167902.11    72.973741    72.973741     36.40762          120   -13666.724   -13338.392   -94561.285   -883.59031   -2141.5207   -2118.0579    72.973741    63.197114     36.40762   -40522.134   -310552.98 
     210    756.30381    167722.77    72.947751    72.947751    36.394653          120   -9029.0472    -9111.433   -72633.116   -1171.0134    -1840.549   -2049.2085    72.947751    63.174606    36.394653   -30257.865   -310622.69 
     220    739.67934    167546.23    72.922147    72.922147    36.381879          120   -6426.4694    -4819.819   -54564.218   -1121.7138   -1220.5782   -2939.9652    72.922147    63.152432    36.381879   -21936.836   -310630.53 
     230     718.7525    167374.73    72.897257    72.897258    36.369461          120   -6260.8993   -5040.1443   -45424.402   -698.15392   -792.41276   -3646.5296    72.897257    63.130877    36.369461   -18908.482   -310628.43 
     240    713.75534    167208.63    72.873135    72.873136    36.357427          120    -9102.711   -6702.8015   -47026.373   -283.09185   -1887.9585   -3762.3863    72.873135    63.109987    36.357427   -20943.962   -310656.48 
     250    723.33884     167046.5    72.849574    72.849575    36.345672          120    -11457.06   -10119.102   -58896.853     129.5014   -2168.3847   -3575.1406    72.849574    63.089583    36.345672   -26824.338   -310713.29 
     260     729.7598    166885.79    72.826206    72.826206    36.334013          120    -12765.28   -12819.436   -72506.555    101.87745   -2149.7031   -4145.4831    72.826206    63.069345    36.334013   -32697.091   -310766.43 
     270    709.71952    166724.21    72.802694    72.802695    36.322283          120   -12385.937    -13730.54   -82268.913    188.22715   -1841.8127   -3525.2883    72.802694    63.048983    36.322283   -36128.463   -310769.19 
     280    686.77719     166560.6    72.778872    72.778873    36.310397          120   -11640.098   -10804.797   -84059.505    10.332306   -1492.1746   -2403.7857    72.778872    63.028353    36.310397   -35501.467   -310764.07 
     290    687.39562    166395.48    72.754815    72.754815    36.298395          120   -8053.0729   -5872.4223   -76660.606    519.57889   -1143.1668   -2484.7676    72.754815    63.007518    36.298395   -30195.367    -310803.5 
     300    688.25848    166231.01    72.730836    72.730836    36.286431          120   -3417.7939   -1560.6389   -65175.139    552.10777   -704.27703   -2237.3227    72.730836    62.986752    36.286431   -23384.524   -310842.31 
     310     678.5091    166069.83     72.70732    72.707321    36.274699          120   -213.44531    739.67185   -53089.883    616.10268   -216.22959   -2411.3768     72.70732    62.966387    36.274699   -17521.219   -310859.18 
     320    669.57922    165913.98    72.684569     72.68457    36.263348          120    758.39685    811.31822   -44475.138    623.76968   -1002.6067   -2077.3622    72.684569    62.946684    36.263348   -14301.808   -310877.31 
     330    659.48653    165764.46    72.662729     72.66273    36.252452          120    938.13299    840.78866   -41309.762    179.76393    -948.4602   -1954.9103    72.662729     62.92777    36.252452   -13176.947   -310892.35 
     340    662.53596    165621.31    72.641805    72.641806    36.242013          120   -688.32835    1020.5429   -46130.147    165.27234   -1244.6611   -2115.1227    72.641805     62.90965    36.242013   -15265.978   -310932.22 
     350    655.43406    165483.42    72.621641    72.621642    36.231953          120   -997.50906    368.14367   -55411.871    64.741282   -1457.3567   -2559.2309    72.621641    62.892187    36.231953   -18680.412   -310953.11 
     360    638.84817    165349.28    72.602014    72.602014     36.22216          120   -1174.8452    105.62188   -63905.128    -385.6295   -1558.9545   -2578.2815    72.602014    62.875189     36.22216   -21658.117   -310954.42 
     370    626.84997    165217.64     72.58274    72.582741    36.212544          120   -19.757775    257.82692   -66521.242   -89.048366   -2706.3056   -3273.6868     72.58274    62.858498    36.212544   -22094.391   -310963.45 
     380    624.83627    165088.25    72.563788    72.563788    36.203089          120    2368.0281    2778.5051   -61999.653   -405.20167   -2766.3965   -2964.3366    72.563788    62.842084    36.203089    -18951.04   -310991.21 
     390    624.56897    164962.01    72.545288    72.545289    36.193859          120    4924.7882    5335.8906   -55270.471    -758.8117    -1920.336   -2687.7295    72.545288    62.826063    36.193859   -15003.264   -311021.61 
     400    616.55434     164840.2    72.527427    72.527427    36.184948          120    7606.3913    7708.6737   -46178.002   -750.80499   -1481.4857   -2431.9458    72.527427    62.810594    36.184948   -10287.646   -311036.04 
     410    610.28403     164724.1    72.510395    72.510396     36.17645          120    8939.6508    10027.015   -39802.863   -827.89677   -1514.7399   -2402.8682    72.510395    62.795845     36.17645   -6945.3991   -311053.81 
     420    604.79357    164614.44    72.494302    72.494302    36.168421          120     9484.243    10627.685   -37349.923   -269.02224   -1351.1335   -1638.4825    72.494302    62.781907    36.168421   -5745.9983   -311072.29 
     430    598.98466     164511.1    72.479128    72.479129    36.160851          120    9104.7293    9348.0182   -39755.865    583.26949   -1774.4653   -1315.1369    72.479128    62.768767    36.160851   -7101.0391   -311088.82 
     440    595.27084    164413.09    72.464732    72.464733    36.153669          120     9103.459    8126.4904   -45004.779    697.22003   -1776.8779   -700.75926    72.464732      62.7563    36.153669   -9258.2765   -311110.14 
     450    586.51104    164319.19    72.450934    72.450935    36.146785          120    9459.0237    7968.9093   -50019.537    443.76695   -1332.0237   -645.53526    72.450934     62.74435    36.146785   -10863.868   -311121.35 
     460    577.12873    164228.48      72.4376    72.437601    36.140132          120    10418.438    9043.7419   -52446.894    702.85983    -1650.118   -901.81711      72.4376    62.732803    36.140132   -10994.905   -311130.32 
     470    568.86662    164140.61    72.424678    72.424679    36.133685          120    11722.551    10995.303   -51508.472    595.86432   -1603.9274   -543.90562    72.424678    62.721612    36.133685   -9596.8726   -311139.77 
     480    571.70373     164055.8    72.412202    72.412202     36.12746          120     13355.45    12449.106   -46901.587    176.14934    -2001.693   -769.57672    72.412202    62.710807     36.12746   -7032.3437   -311170.89 
     490    562.04547    163974.66    72.400262    72.400262    36.121503          120     14243.32    14415.706   -40584.306    631.92344   -1766.2645   -869.69244    72.400262    62.700467    36.121503   -3975.0933   -311177.34 
     500    554.94148     163897.9    72.388963    72.388963    36.115866          120    15631.828    16085.308   -36428.141    578.00536   -1291.9787   -697.64839    72.388963    62.690681    36.115866    -1570.335   -311187.76 
     510    557.09411    163825.97    72.378373    72.378373    36.110583          120    15804.908    16523.048    -34469.79    469.61579   -777.42598   -211.67041    72.378373     62.68151    36.110583   -713.94465    -311215.2 
     520     551.0325    163758.82    72.368482    72.368483    36.105648          120    15296.975    17046.858    -34738.22   -117.36645   -616.20192   -96.955269    72.368482    62.672945    36.105648   -798.12923   -311227.35 
     530    545.59989    163695.98    72.359223    72.359224    36.101029          120    15303.575    16580.645   -38814.696   -464.90428   -946.98124    375.15707    72.359223    62.664926    36.101029   -2310.1588   -311239.65 
     540    544.93309    163636.58     72.35047    72.350471    36.096662          120    14881.011    16665.727   -42244.467    51.622406   -1943.3221     1039.632     72.35047    62.657346    36.096662   -3565.9098   -311260.86 
     550    534.69114    163579.89    72.342114    72.342115    36.092493          120    14776.043    17233.861   -43996.662   -58.791571   -2058.9833    761.34133    72.342114    62.650109    36.092493   -3995.5859   -311263.71 
     560    524.34361    163525.55    72.334103    72.334104    36.088496          120    15622.549    18348.462   -42654.145   -193.58169   -1495.8131    670.16472    72.334103    62.643172    36.088496   -2894.3779   -311265.45 
     570    522.50569    163473.72     72.32646    72.326461    36.084683          120    17346.944    18829.138   -39466.398    489.51847   -1394.8284    1008.0433     72.32646    62.636552    36.084683   -1096.7721   -311282.81 
     580    520.16741    163424.84     72.31925    72.319251    36.081086          120     19664.51    20522.526   -36042.151    1431.3654   -494.09963    366.29956     72.31925    62.630309    36.081086    1381.6286   -311298.91 
     590    514.48327    163379.54    72.312569    72.312569    36.077752          120    20602.585    21738.624   -30983.509    1068.7846    107.76439   -986.12091    72.312569    62.624522    36.077752       3785.9   -311308.27 
     600    509.44737    163338.34     72.30649     72.30649    36.074719          120    20667.371    21931.555   -31104.082    940.79948   -133.78013   -639.32236     72.30649    62.619257    36.074719    3831.6146   -311317.87 
     610    506.28103    163301.03    72.300983    72.300984    36.071972          120    21018.438    21284.323    -32736.71    256.57102   -31.282896   -441.20265    72.300983    62.614489    36.071972    3188.6836   -311330.85 
     620    498.61699    163267.13     72.29598    72.295981    36.069476          120     22107.16    21083.281    -34637.54    155.07625   -184.02446   -886.91795     72.29598    62.610156    36.069476    2850.9668   -311334.69 
     630    501.73098    163236.23    72.291419    72.291419      36.0672          120    21713.542    20535.873   -36277.276    190.39867   -339.42826    371.56336    72.291419    62.606206      36.0672    1990.7131   -311359.08 
     640    491.95143    163207.87    72.287232    72.287233    36.065111          120    22650.456    21061.539   -37414.743   -222.24825   -348.31803    1358.7176    72.287232     62.60258    36.065111    2099.0844   -311357.79 
     650    486.80805    163181.91    72.283398    72.283399    36.063199          120    22439.537    22322.908   -37049.205     410.0336   -919.73055    1207.1025    72.283398     62.59926    36.063199    2571.0798   -311365.03 
     660    488.21276    163158.34    72.279919     72.27992    36.061463          120     21563.23    22897.884   -35041.895    670.58266   -927.40441    950.73218    72.279919    62.596247    36.061463    3139.7396   -311385.23 
     670    483.47968    163137.21    72.276797    72.276798    36.059905          120    21255.238    22487.065   -34205.714    288.36529   -560.64212    614.63708    72.276797    62.593543    36.059905     3178.863   -311392.92 
     680    477.87017    163118.39    72.274019     72.27402    36.058519          120    21555.294    22740.746   -33019.489  -0.36796693   -553.70767   -326.95974    72.274019    62.591137    36.058519    3758.8502   -311398.63 
     690    476.36185    163101.92    72.271586    72.271587    36.057305          120    20932.175    22921.181   -32412.688    221.43339    -581.3898   -229.26541    72.271586     62.58903    36.057305    3813.5562   -311411.46 
     700    467.47496    163087.74    72.269492    72.269492     36.05626          120    21205.836    22658.719   -31123.355    812.46348    342.05994   -16.259339    72.269492    62.587216     36.05626    4247.0666   -311409.55 
     710    474.19329    163075.79    72.267727    72.267727     36.05538          120    20581.181    22207.866   -32638.445    290.75232   -234.46142   -13.379505    72.267727    62.585688     36.05538    3383.5339   -311437.15 
     720    469.61571     163065.7    72.266236    72.266236    36.054636          120    20207.398    22377.785   -34012.572    459.35237    21.991183    254.68728    72.266236    62.584397    36.054636     2857.537   -311443.73 
     730     463.2953    163057.16    72.264974    72.264975    36.054006          120    20463.873    22697.088   -34715.288    822.01343   -338.35019    451.37424    72.264974    62.583304    36.054006    2815.2244   -311445.81 
     740    459.69361    163050.07    72.263926    72.263927    36.053484          120    21041.499    21694.123    -34740.99    404.09899   -1516.5907    710.12361    72.263926    62.582397    36.053484    2664.8775   -311452.56 
     750    457.35162     163044.3    72.263074    72.263075    36.053058          120    21629.073     21247.69   -34195.336    732.54183   -887.71125    1200.7436    72.263074    62.581659    36.053058     2893.809   -311461.25 
     760    455.29411    163039.89    72.262424    72.262424    36.052734          120    23027.481    22724.674   -33073.909    1029.0999    -623.7413    1265.7467    72.262424    62.581095    36.052734    4226.0822   -311470.91 
     770    451.02073     163037.2    72.262025    72.262026    36.052535          120    23834.485    22110.926   -32045.408    268.15154     -406.472     1166.617    72.262025     62.58075    36.052535    4633.3346   -311475.07 
     780    446.66128    163036.31    72.261894    72.261895     36.05247          120    23648.885    22323.727   -30979.996     300.4127    83.704072    1288.4386    72.261894    62.580637     36.05247    4997.5388   -311478.72 
     790      443.585    163037.24    72.262031    72.262032    36.052538          120    22949.694    22392.662    -31669.06    1116.7079     1164.597     1371.738    72.262031    62.580755    36.052538    4557.7653   -311485.32 
     800     439.7762    163039.77    72.262406    72.262406    36.052725          120    23610.018    21064.744   -32253.062    1015.1157    1683.2555    382.94456    72.262406     62.58108    36.052725    4140.5667   -311489.74 
     810     436.8706    163043.69    72.262984    72.262985    36.053014          120    23055.784    20611.865   -32783.963    933.54358     1385.941   -601.92544    72.262984    62.581581    36.053014    3627.8951   -311494.69 
     820    437.55192    163048.74     72.26373    72.263731    36.053386          120    22075.969     20565.74    -33132.06    642.26738    71.653955    420.20473     72.26373    62.582227    36.053386    3169.8827   -311505.72 
     830     433.9441    163054.73    72.264615    72.264615    36.053827          120    22771.191    20925.185   -33260.304   -262.00922   -229.75186     1232.559    72.264615    62.582993    36.053827    3478.6905    -311509.5 
     840      435.761    163061.71    72.265647    72.265647    36.054342          120    23216.049    21693.753    -31948.53    47.096066   -694.45316    1148.6786    72.265647    62.583886    36.054342    4320.4239   -311523.47 
     850    428.95737    163069.95    72.266864    72.266865    36.054949          120    22366.042    22210.717   -30049.219    868.24422   -928.31084    698.40265    72.266864    62.584941    36.054949    4842.5132   -311519.97 
     860    427.39242    163079.57    72.268285    72.268285    36.055658          120    22881.922    21728.881   -30277.338    716.87373   -803.06309    260.03762    72.268285    62.586171    36.055658    4777.8217   -311526.32 
     870    426.87213     163090.5      72.2699      72.2699    36.056464          120    22317.875    21922.838    -30491.34    940.13016   -216.96184     290.1827      72.2699     62.58757    36.056464    4583.1244   -311534.13 
     880    424.62392     163102.6    72.271687    72.271687    36.057356          120    21620.611    21538.452    -31734.99    1055.5724    340.71091    364.38714    72.271687    62.589118    36.057356    3808.0239   -311537.63 
     890    424.37279    163115.58    72.273604    72.273604    36.058312          120    21426.027    21320.877   -32233.632     476.0593    895.74991     1212.144    72.273604    62.590778    36.058312     3504.424   -311545.19 
     900    420.56526    163129.26    72.275625    72.275625     36.05932          120    21211.472    21163.085   -33480.343    415.74607    685.82746    1266.8996    72.275625    62.592528     36.05932    2964.7379   -311546.11 
     910    419.28967    163143.49    72.277725    72.277725    36.060368          120    21731.135    20953.441   -32837.731    929.35409     516.1093    1488.3985    72.277725    62.594347    36.060368    3282.2818   -311550.47 
     920    416.14529    163158.28    72.279909     72.27991    36.061458          120    21924.514    20920.477   -33383.027    807.47196    553.71166    1330.1393    72.279909    62.596238    36.061458    3153.9884    -311551.7 
     930    414.72791    163173.61    72.282173    72.282173    36.062587          120    21138.705    20948.294   -33097.408    682.61227    607.40083    1511.8677    72.282173    62.598199    36.062587    2996.5302   -311555.47 
     940    418.07462    163189.38    72.284502    72.284502    36.063749          120     20249.17    20571.933   -33009.011     432.7508    103.89181    1092.1541    72.284502    62.600215    36.063749    2604.0308   -311567.59 
     950    414.08725    163205.46    72.286877    72.286877    36.064934          120    20430.573     20200.66   -33030.912   -244.75251   -335.02321    1133.8596    72.286877    62.602272    36.064934    2533.4406   -311565.77 
     960     407.9582    163221.85    72.289296    72.289296    36.066141          120    21304.702    20709.302   -32706.599   -348.16218   -280.29119    2329.8843    72.289296    62.604367    36.066141    3102.4684   -311559.05 
     970    411.29631    163238.68     72.29178    72.291781     36.06738          120     21727.13     21432.16   -33541.075    -52.83943   -345.84064    1655.6091     72.29178    62.606519     36.06738    3206.0716   -311570.05 
     980     410.3925       163256    72.294337    72.294338    36.068656          120    21789.657    21097.797   -33233.273    822.38936   -722.68854    1396.3517    72.294337    62.608733    36.068656    3218.0603   -311573.28 
     990    409.71029    163273.79    72.296963    72.296963    36.069966          120    21105.109    20661.407    -34024.45    668.41841   -67.245799    720.26426    72.296963    62.611007    36.069966    2580.6889    -311575.8 
    1000    409.91219    163291.81    72.299623    72.299623    36.071293          120    20805.602    20266.409   -35272.861    616.76574   -522.76147    743.31814    72.299623    62.613311    36.071293      1933.05   -311579.59 
Loop time of 305.963 on 1 procs for 1000 steps with 14848 atoms

Performance: 0.282 ns/day, 84.990 hours/ns, 3.268 timesteps/s
100.0% CPU use with 1 MPI tasks x no OpenMP threads

MPI task timing breakdown:
Section |  min time  |  avg time  |  max time  |%varavg| %total
---------------------------------------------------------------
Pair    | 237.77     | 237.77     | 237.77     |   0.0 | 77.71
Bond    | 0.00027585 | 0.00027585 | 0.00027585 |   0.0 |  0.00
Kspace  | 10.91      | 10.91      | 10.91      |   0.0 |  3.57
Neigh   | 50.494     | 50.494     | 50.494     |   0.0 | 16.50
Comm    | 0.46273    | 0.46273    | 0.46273    |   0.0 |  0.15
Output  | 0.010588   | 0.010588   | 0.010588   |   0.0 |  0.00
Modify  | 6.207      | 6.207      | 6.207      |   0.0 |  2.03
Other   |            | 0.1125     |            |       |  0.04

Nlocal:    14848 ave 14848 max 14848 min
Histogram: 1 0 0 0 0 0 0 0 0 0
Nghost:    46857 ave 46857 max 46857 min
Histogram: 1 0 0 0 0 0 0 0 0 0
Neighs:    1.00802e+07 ave 1.00802e+07 max 1.00802e+07 min
Histogram: 1 0 0 0 0 0 0 0 0 0

Total # of neighbors = 10080231
Ave neighs/atom = 678.895
Ave special neighs/atom = 0
Neighbor list builds = 183
Dangerous builds = 0
PPPM initialization ...
  using 12-bit tables for long-range coulomb (../kspace.cpp:321)
  G vector (1/distance) = 0.202598
  grid = 36 50 24
  stencil order = 5
  estimated absolute RMS force accuracy = 0.000998051
  estimated relative force accuracy = 6.93108e-05
  using double precision FFTs
  3d grid and FFT values/proc = 65395 43200
Setting up Verlet run ...
  Unit style    : metal
  Current step  : 0
  Time step     : 0.001
Per MPI rank memory allocation (min/avg/max) = 151.5 | 151.5 | 151.5 Mbytes
Step Temp Volume Cella Cellb Cellc CellGamma Pxx Pyy Pzz Pxy Pxz Pyz Lx Ly Lz Press PotEng 
       0    409.91219    163291.81    72.299623    72.299623    36.071293          120    20817.263    20278.324   -35266.722    617.44234   -522.57111    743.42747    72.299623    62.613311    36.071293     1942.955   -311579.43 
      10     408.5036    163309.84    72.302283    72.302284    36.072621          120    20810.332    20019.853   -35547.425    957.15018   -586.62447    1607.3779    72.302283    62.615615    36.072621    1760.9202   -311580.07 
      20    407.81967    163327.82    72.304937    72.304938    36.073945          120    20649.378    20291.828   -34315.802    863.07145   -324.54266    1454.6753    72.304937    62.617913    36.073945    2208.4679   -311581.05 
      30    411.12169    163345.93     72.30761     72.30761    36.075278          120    20677.317    21052.642   -32818.964    296.63382    8.7721662    604.51631     72.30761    62.620227    36.075278    2970.3315   -311589.35 
      40    406.52236    163364.42    72.310337    72.310338    36.076639          120    20961.032    21161.759   -32055.706    274.81311   -675.96489    556.95378    72.310337     62.62259    36.076639    3355.6951   -311581.74 
      50    403.68349    163383.37    72.313134    72.313134    36.078034          120    20193.163    20760.003   -32427.764    793.85845   -1539.4656    878.68804    72.313134    62.625011    36.078034    2841.8009   -311577.65 
      60    407.61514    163402.61    72.315972    72.315972     36.07945          120    18858.256    19717.138   -32767.986    1123.0873   -1315.3571    1356.8397    72.315972    62.627469     36.07945    1935.8027   -311585.96 
      70    406.58726    163421.82    72.318805    72.318805    36.080863          120    17913.672    18654.709   -33657.124    1223.1426   -1718.9928    1585.1644    72.318805    62.629923    36.080863    970.41863   -311584.69 
      80    402.26563    163440.67    72.321585    72.321586    36.082251          120    18250.682    18135.209   -35076.185    969.93423   -1050.6251    463.59917    72.321585    62.632331    36.082251     436.5686   -311576.11 
      90     405.7867       163459    72.324289    72.324289    36.083599          120    19688.324     18217.95   -35096.025    495.83592    -343.2322    1140.0093    72.324289    62.634672    36.083599    936.74976   -311581.37 
     100    405.13222    163476.97    72.326939     72.32694    36.084922          120    19729.311    18718.855   -35020.548    69.074244   -267.77774    1213.8591    72.326939    62.636968    36.084922    1142.5395   -311579.01 
     110     406.0421    163494.67     72.32955    72.329551    36.086224          120    18971.841     18732.71   -35052.878    553.70513   -385.09462    842.38926     72.32955    62.639228    36.086224    883.89087   -311578.48 
     120    408.24736    163512.05    72.332113    72.332113    36.087503          120     18983.21    19375.369   -36090.468    962.77191   -65.470093    1272.8638    72.332113    62.641448    36.087503    756.03709   -311580.27 
     130    411.61895    163529.07    72.334622    72.334623    36.088755          120    18642.131    19773.368   -36299.549    567.36072    809.78696    676.28322    72.334622    62.643621    36.088755    705.31659   -311583.83 
     140    408.26567    163545.74    72.337079     72.33708    36.089981          120      18958.8    19511.724   -35340.304    1197.6422    652.22018    630.98181    72.337079    62.645749    36.089981    1043.4067   -311573.48 
     150    411.15296    163562.18    72.339503    72.339504     36.09119          120    19043.135    19463.114   -34654.026    1016.7912    255.99101    1406.2964    72.339503    62.647848     36.09119    1284.0744   -311575.87 
     160    413.28242    163578.47    72.341905    72.341905    36.092388          120    19268.687      19629.8    -35418.79     553.7024   -606.81012     1619.537    72.341905    62.649928    36.092388    1159.8988   -311576.39 
     170     413.4348    163594.57    72.344279    72.344279    36.093573          120    18818.456    18993.869   -35928.033    769.96595   -676.43832    926.14765    72.344279    62.651984    36.093573    628.09707   -311572.73 
     180    414.70065    163610.34    72.346604    72.346604    36.094732          120    18186.723    19514.953   -35737.185    673.35019   -694.45887    1045.8102    72.346604    62.653997    36.094732    654.83035   -311570.18 
     190    414.30226    163625.79     72.34888    72.348881    36.095868          120    18798.715    19398.427   -35820.944    305.05172   -1455.2328     1170.051     72.34888    62.655969    36.095868    792.06579      -311565 
     200    415.11081    163640.96    72.351116    72.351116    36.096984          120    19445.792    18723.558   -36962.893    132.23094    -631.6828    948.91217    72.351116    62.657905    36.096984    402.15219   -311562.11 
     210    422.54709    163655.75    72.353295    72.353296    36.098071          120    19286.243    17867.681   -36832.039   -42.756498   -578.38577    1665.7252    72.353295    62.659792    36.098071    107.29495    -311571.2 
     220     418.6823    163670.05    72.355403    72.355404    36.099123          120    19110.131    16782.274   -36593.175    38.241606    178.26668    1308.0479    72.355403    62.661618    36.099123   -233.58997   -311559.16 
     230    420.60416     163683.8    72.357429    72.357429    36.100133          120    18607.505    16822.731   -36076.557    271.17481    927.31463    550.10827    72.357429    62.663372    36.100133   -215.44019    -311558.6 
     240    421.42169    163696.97     72.35937     72.35937    36.101102          120    17951.939    16356.348   -36296.861    286.31607    1095.9445    60.113674     72.35937    62.665053    36.101102   -662.85786   -311555.66 
     250    420.49128    163709.42    72.361203    72.361204    36.102017          120    17394.774    15753.695   -36847.131    473.23256    1557.4819    676.55277    72.361203    62.666641    36.102017   -1232.8874    -311549.5 
     260    424.30811    163721.02    72.362914    72.362914     36.10287          120    17666.431    16293.774   -35835.092    769.77612    1876.6724    1410.5183    72.362914    62.668122     36.10287   -624.96216   -311552.52 
     270    427.34441    163731.96    72.364524    72.364525    36.103673          120    17508.564    15813.343   -36607.283    1081.2195    180.13961    1476.0365    72.364524    62.669517    36.103673   -1095.1253    -311554.3 
     280    422.57971    163742.14    72.366024    72.366025    36.104422          120    17514.016    15765.355   -36744.757    450.97948   -1089.4844    693.89248    72.366024    62.670816    36.104422   -1155.1287    -311541.3 
     290    425.17103    163751.54    72.367409     72.36741    36.105113          120    17599.508    16131.153   -37640.522   -171.84738   -1280.6636    1061.6194    72.367409    62.672015    36.105113   -1303.2867   -311543.34 
     300    427.11878    163760.13    72.368675    72.368675    36.105744          120     16804.83    17074.078   -37824.033   -153.20656   -1288.5059    1217.1101    72.368675    62.673111    36.105744   -1315.0416   -311543.44 
     310    428.81989    163767.98     72.36983    72.369831    36.106321          120    17151.768    17863.896    -36543.41     115.5995   -1393.7323    1599.2447     72.36983    62.674112    36.106321   -509.24857   -311543.89 
     320    432.58408    163775.36    72.370918    72.370919    36.106863          120    18244.546    17833.367   -35430.215     263.7516   -894.30034    1920.1221    72.370918    62.675054    36.106863    215.89938   -311548.14 
     330    431.02193    163782.55    72.371977    72.371978    36.107392          120     18756.14    17650.062   -36103.418    506.68437   -121.34209    1691.5697    72.371977    62.675971    36.107392    100.92785   -311542.65 
     340    431.25543    163789.53    72.373005    72.373006    36.107905          120    18636.772    16900.786    -36367.62   -171.68608   -14.763969    1014.2033    72.373005    62.676862    36.107905   -276.68702   -311541.28 
     350    433.37819    163796.19    72.373986    72.373986    36.108394          120     17457.25    17162.058   -36250.895   -281.87274    464.53446    1002.5002    72.373986    62.677711    36.108394   -543.86243   -311544.54 
     360    430.86113    163802.41    72.374902    72.374903    36.108851          120    16759.332    17124.095   -37500.656     282.8299    720.56919    967.37934    72.374902    62.678505    36.108851   -1205.7427   -311538.98 
     370    431.97242       163808    72.375725    72.375726    36.109262          120    16325.872     17706.09    -38378.02    446.36345   -136.73444    604.43108    72.375725    62.679217    36.109262   -1448.6863   -311540.41 
     380    431.28136    163812.83    72.376436    72.376437    36.109616          120    16246.869    16657.655   -40253.786    319.74397   -716.94701    73.568493    72.376436    62.679833    36.109616   -2449.7541   -311538.58 
     390    430.33138    163816.61    72.376993    72.376994    36.109894          120    15832.027     16369.28   -40930.986    644.32028    -32.44364    547.95334    72.376993    62.680316    36.109894    -2909.893   -311537.84 
     400    428.62386    163819.25    72.377382    72.377383    36.110088          120    16606.206      16762.4   -39695.987    277.80527   -128.70836     1629.138    72.377382    62.680652    36.110088   -2109.1271   -311535.76 
     410    426.53302    163821.03    72.377645    72.377645    36.110219          120    17106.883     17229.79   -37605.976   -337.71441   -973.60262    1528.9666    72.377645     62.68088    36.110219   -1089.7677   -311532.94 
     420    430.92357    163822.34    72.377837    72.377838    36.110315          120    17717.447    17881.799   -36961.573   -57.448661   -954.38813    1157.8251    72.377837    62.681046    36.110315   -454.10898   -311543.53 
     430    428.86377    163823.44       72.378       72.378    36.110397          120    17726.107     18736.91   -35590.534    267.13228   -671.45749    2092.9475       72.378    62.681187    36.110397    290.82752    -311541.3 
     440    431.07305    163824.57    72.378166    72.378167     36.11048          120    18050.028    18095.656   -36324.059    813.13809   -221.60016    2587.8431    72.378166    62.681331     36.11048   -59.458505   -311547.99 
     450    429.07647    163825.63    72.378322    72.378323    36.110557          120    17863.262    16558.997   -37772.141    1066.9401   -777.19788    2400.4325    72.378322    62.681466    36.110557   -1116.6273   -311547.19 
     460    429.36497    163826.24    72.378412    72.378413    36.110602          120    16626.604    15380.664   -38388.426     785.0496   -419.84446    2596.4713    72.378412    62.681544    36.110602   -2127.0526   -311551.25 
     470    423.69598     163826.1    72.378391    72.378392    36.110592          120    16938.074    16425.068   -38413.068    501.47203    141.33262    1497.1424    72.378391    62.681526    36.110592   -1683.3087   -311543.65 
     480    426.44824    163825.34    72.378279     72.37828    36.110536          120    17061.579    17258.509   -37429.082    486.15035    122.00106    800.47765    72.378279    62.681429    36.110536   -1036.3313    -311552.4 
     490    424.36391    163824.21    72.378112    72.378113    36.110453          120    17177.201    17780.489   -37298.243    779.34506   -138.37846    892.29796    72.378112    62.681285    36.110453   -780.18436   -311551.82 
     500    424.56534     163822.8    72.377905    72.377906    36.110349          120    17345.642    17636.082   -37784.167    861.48357   -232.40088    880.69921    72.377905    62.681105    36.110349    -934.1476   -311555.65 
     510    421.45905    163821.09    72.377653    72.377654    36.110224          120    17097.775    17020.253   -37376.184    344.80573   -196.04817    1569.1026    72.377653    62.680887    36.110224   -1086.0522   -311554.23 
     520    421.36142       163819    72.377346    72.377346     36.11007          120    15962.828    16243.825    -37900.03   -628.16344    -298.3745    1791.3238    72.377346    62.680621     36.11007   -1897.7924   -311558.65 
     530    423.13207    163816.32     72.37695    72.376951    36.109873          120    15781.826    16214.284   -37495.263   -31.303905   -861.08953    2318.5482     72.37695    62.680278    36.109873   -1833.0508   -311566.02 
     540    423.08606    163813.05    72.376469    72.376469    36.109633          120    16326.005    16667.672   -37855.127    536.74819   -1090.6216    1941.8455    72.376469    62.679861    36.109633   -1620.4832   -311569.75 
     550    417.39641    163809.31    72.375919     72.37592    36.109358          120    16873.273    17071.221    -36157.25    186.44994   -249.71899    2092.4125    72.375919    62.679385    36.109358   -737.58552   -311562.88 
     560    416.61425    163805.36    72.375337    72.375337    36.109068          120    16100.764    16620.661   -35813.136    56.152038   -210.43415    1516.1234    72.375337    62.678881    36.109068   -1030.5705   -311565.53 
     570    419.34729    163801.16    72.374718    72.374719    36.108759          120    16485.722    16388.498   -35355.325   -362.44415   -65.960371    879.78213    72.374718    62.678345    36.108759   -827.03501   -311574.93 
     580    417.40669    163796.78    72.374073    72.374073    36.108437          120    17070.664    16413.566   -35518.197   -412.26437   -868.82802     946.0908    72.374073    62.677786    36.108437   -677.98894   -311575.31 
     590    416.54444    163792.31    72.373415    72.373415    36.108109          120    17676.657    17472.154   -35797.027   -481.17438   -779.27665    386.51704    72.373415    62.677216    36.108109   -216.07208   -311577.22 
     600    416.29933    163787.86    72.372759    72.372759    36.107782          120     17056.91    17543.367   -36187.473   -346.60505   -555.44957    615.43017    72.372759    62.676648    36.107782   -529.06516   -311580.01 
     610    415.80975    163783.39      72.3721    72.372101    36.107453          120    18494.709    17704.956   -36208.864   -294.97465   -16.507457     982.6023      72.3721    62.676078    36.107453    -3.066261   -311582.17 
     620    414.98302    163779.01    72.371456    72.371457    36.107132          120    18404.522    17606.668   -36835.094   -331.02336    360.84059    1588.7553    72.371456     62.67552    36.107132   -274.63448   -311583.87 
     630    413.65591    163774.65    72.370814    72.370815    36.106811          120    17499.459    18378.543   -38320.291    129.86811   -970.85879    1927.6498    72.370814    62.674964    36.106811   -814.09632   -311584.21 
     640    411.78396    163770.14     72.37015     72.37015     36.10648          120    17589.827    18192.367   -38252.603    318.73644   -687.22417    2140.4614     72.37015    62.674389     36.10648   -823.46958   -311583.44 
     650    411.33924    163765.45    72.369458    72.369459    36.106135          120    17360.371    18064.536   -37912.399    210.21653   -57.824908    2086.0049    72.369458     62.67379    36.106135   -829.16399      -311584 
     660    416.12828     163760.6    72.368744    72.368745    36.105779          120    18054.228    18780.912   -37209.273    265.56794   -312.57105    1417.1226    72.368744    62.673172    36.105779   -124.71098   -311595.46 
     670      411.438    163755.86    72.368046    72.368047    36.105431          120     19318.23    18902.161   -36006.524    505.50846    70.656862    1287.5562    72.368046    62.672567    36.105431    737.95582   -311588.21 
     680    408.32683    163751.51    72.367405    72.367406    36.105111          120    18488.614    19490.678   -35995.277    442.42033   -217.54134    762.77844    72.367405    62.672012    36.105111    661.33844   -311583.75 
     690    407.75026    163747.53    72.366819     72.36682    36.104818          120    18305.728    19715.364   -35984.139    350.78292     6.847439    603.21613    72.366819    62.671504    36.104818    678.98423   -311583.74 
     700    413.18404     163743.9    72.366284    72.366285    36.104552          120    18847.021    18672.197   -35942.615    258.97475    406.83717    569.06558    72.366284    62.671041    36.104552    525.53426    -311594.6 
     710    409.42906    163740.55    72.365791    72.365791    36.104305          120     18539.17    17677.508   -36911.302   -90.890327    606.79561      232.177    72.365791    62.670614    36.104305   -231.54139   -311587.41 
     720    411.53657    163737.22      72.3653      72.3653     36.10406          120    17963.626    16663.274   -36639.278   -101.74332    726.66607    1022.1647      72.3653    62.670188     36.10406   -670.79247    -311591.7 
     730    412.07033    163733.73    72.364786    72.364787    36.103804          120    16868.934     17192.31   -36715.959   -429.73549   -720.20152    1114.2892    72.364786    62.669744    36.103804   -884.90486   -311592.32 
     740    406.35621    163730.03     72.36424    72.364241    36.103532          120    17398.224    18073.868    -37399.54    355.34107   -889.19358    1428.3288     72.36424    62.669271    36.103532   -642.48308   -311580.44 
     750    413.35516    163726.18    72.363673    72.363674    36.103249          120    18209.771     17414.13   -37283.804    428.49029   -319.89679    1136.7818    72.363673     62.66878    36.103249   -553.30103   -311592.65 
     760    412.63509    163722.24    72.363094    72.363094     36.10296          120    18356.515    17191.355   -36614.306    139.57197    -321.8191    2234.4387    72.363094    62.668278     36.10296   -355.47871   -311589.34 
     770    414.95145    163718.28     72.36251     72.36251    36.102668          120    18614.326     16600.64   -37052.428   -375.33038   -318.14406    1957.0198     72.36251    62.667772    36.102668   -612.48777   -311592.16 
     780    413.42419    163714.21     72.36191    72.361911    36.102369          120    18508.074    17078.378   -38241.874    -157.0439   -538.99282    1311.5067     72.36191    62.667253    36.102369   -885.14065   -311587.19 
     790     415.9739    163709.95    72.361282    72.361283    36.102056          120    18104.158    17588.914   -37110.236    361.83073   -500.31864    2033.4621    72.361282    62.666709    36.102056   -472.38804   -311590.27 
     800      414.265    163705.66     72.36065    72.360651    36.101741          120    17767.075    18438.365   -34634.487    304.43614   -323.94432    1561.7908     72.36065    62.666162    36.101741    523.65089    -311584.4 
     810    415.08636    163701.62    72.360054    72.360055    36.101443          120    17787.021    17853.873   -35642.543    854.30048    2.0676561    1480.6589    72.360054    62.665646    36.101443  -0.54945344   -311583.41 
     820     418.7755    163697.66    72.359471    72.359471    36.101152          120     17388.96    17339.761   -37281.982    964.19409   -542.56506    1242.3179    72.359471    62.665141    36.101152   -851.08692   -311587.24 
     830    414.60283    163693.53    72.358863    72.358864    36.100849          120     17979.68    17510.313   -37248.237    965.00421   -833.72586    1151.8907    72.358863    62.664615    36.100849   -586.08142      -311577 
     840    419.36657    163689.34    72.358245    72.358246    36.100541          120    18591.732     18209.95   -35759.944    951.42979   -350.52461    958.92878    72.358245    62.664079    36.100541    347.24625   -311583.41 
     850    419.52502     163685.4    72.357665    72.357665    36.100251          120     19569.87    19970.395   -35385.242    42.453716   -130.07051    1692.3796    72.357665    62.663576    36.100251    1385.0079   -311579.89 
     860    422.06072    163682.02    72.357167    72.357168    36.100003          120    19737.527    19874.258   -36336.008   -377.23978   -135.89473    1894.0182    72.357167    62.663146    36.100003    1091.9258   -311581.63 
     870    421.41928    163679.16    72.356746    72.356746    36.099793          120    19406.456    20171.454   -36124.568    -343.2578   -42.233002    1713.8393    72.356746    62.662781    36.099793    1151.1141   -311578.26 
     880    419.47136    163676.78    72.356395    72.356396    36.099618          120    19417.905    19429.438     -36309.9     528.4884   -464.30181    1254.8265    72.356395    62.662477    36.099618    845.81466   -311571.97 
     890    420.11414     163674.8    72.356103    72.356103    36.099472          120    18587.083    19307.002   -35228.484    496.77896   -828.25685    1872.4393    72.356103    62.662224    36.099472    888.53349   -311569.92 
     900    423.72142    163673.18    72.355864    72.355865    36.099353          120    19962.365    18770.987   -36437.013   -42.201767   -527.13278    2067.1073    72.355864    62.662017    36.099353    765.44642   -311573.74 
     910    425.43976     163671.9    72.355676    72.355676    36.099259          120    19737.165    19143.079   -35498.045   -310.64214   -470.88224    1803.6099    72.355676    62.661854    36.099259    1127.3995   -311574.16 
     920     426.2673    163671.08    72.355555    72.355556    36.099199          120    18951.153    19974.828   -34266.044   -300.90501    574.91986     1024.454    72.355555     62.66175    36.099199    1553.3125   -311572.74 
     930    421.22866    163670.85     72.35552    72.355521    36.099181          120    19213.757    19759.448   -34341.143    87.944207    581.44378     867.5775     72.35552    62.661719    36.099181    1544.0205   -311561.46 
     940    426.09149    163671.19     72.35557    72.355571    36.099206          120    19419.873    20122.915     -35246.3   -78.243476    302.29653    1056.2105     72.35557    62.661763    36.099206    1432.1628   -311568.49 
     950    425.69353    163672.04    72.355696    72.355697    36.099269          120    19841.858    19797.605   -35996.586   -217.02973    73.970408    982.45839    72.355696    62.661872    36.099269    1214.2926   -311565.77 
     960    425.69919     163673.3    72.355882    72.355883    36.099362          120    19153.059     19013.27   -35604.927   -539.84562    96.045372    1133.3269    72.355882    62.662033    36.099362    853.80083   -311563.81 
     970    424.27196    163674.84    72.356109     72.35611    36.099475          120    20119.773    18862.449   -36265.602   -590.57268    -378.5475    1283.6031    72.356109    62.662229    36.099475    905.53998   -311559.75 
     980    429.97834    163676.69    72.356381    72.356382    36.099611          120    20092.297    19637.605   -35399.759   -462.57042   -875.81794    1317.8474    72.356381    62.662465    36.099611    1443.3808   -311569.73 
     990    428.39243    163679.02    72.356725    72.356725    36.099782          120    20159.604    20074.042   -34882.778   -134.32954   -278.41363    794.64365    72.356725    62.662762    36.099782    1783.6228    -311565.8 
    1000    430.35891    163681.93    72.357154    72.357154    36.099996          120    20128.527    18992.628   -33970.663    190.01827   -93.646784    1431.8876    72.357154    62.663134    36.099996    1716.8308   -311568.82 
    1010    425.11224    163685.42    72.357668    72.357668    36.100253          120    20124.296    19215.812   -34470.446    893.39224   -137.77304    798.43785    72.357668    62.663579    36.100253    1623.2206    -311558.3 
    1020    427.07941    163689.42    72.358257    72.358257    36.100547          120    19953.383    19839.967   -35144.649    87.707993   -792.75682    170.58686    72.358257    62.664089    36.100547    1549.5667   -311561.75 
    1030    426.63923    163693.89    72.358915    72.358916    36.100875          120    20155.861    19441.371   -34801.818    347.54053    -819.0099      460.731    72.358915    62.664659    36.100875    1598.4715   -311561.12 
    1040    430.50039    163698.83    72.359644    72.359644    36.101238          120    20131.115    20014.441   -35054.209    493.40119   -1367.1387    806.07744    72.359644     62.66529    36.101238    1697.1156   -311569.63 
    1050    426.59375    163704.27    72.360446    72.360446    36.101639          120    19578.958    20101.756   -34193.144   -218.70631   -920.57315    1192.6535    72.360446    62.665985    36.101639    1829.1902   -311562.71 
    1060    430.60106    163710.25    72.361326    72.361327    36.102078          120    19834.589    20365.533   -35261.982   -603.47858    745.62151    1287.0304    72.361326    62.666747    36.102078    1646.0465   -311572.17 
    1070    428.72064    163716.69    72.362275    72.362275    36.102551          120     19852.76    19958.623   -35677.272     127.3308    648.22471    1273.4681    72.362275    62.667569    36.102551    1378.0366    -311569.9 
    1080     425.9899    163723.46    72.363272    72.363273    36.103049          120    19512.977    19081.131    -35088.66    642.83279    671.06203    739.41737    72.363272    62.668433    36.103049    1168.4829    -311566.9 
    1090    424.23131    163730.52    72.364312    72.364313    36.103568          120    20024.322     19574.36   -34403.646    377.53898   -59.134942    1204.0596    72.364312    62.669334    36.103568    1731.6784   -311565.77 
    1100    425.61392    163738.01    72.365416    72.365416    36.104118          120     18912.09     20239.68   -34491.653    1011.8118    -485.8413    1091.5187    72.365416    62.670289    36.104118    1553.3724   -311570.51 
    1110    426.63167     163745.9    72.366579     72.36658    36.104699          120    19085.197    20158.964    -34836.42    420.86041    531.99834    1092.5734    72.366579    62.671297    36.104699     1469.247   -311574.99 
    1120    424.62642    163754.12     72.36779     72.36779    36.105303          120      19215.9    18894.781   -36003.205   -361.40226    438.65925    811.47383     72.36779    62.672345    36.105303    702.49198   -311574.11 
    1130    421.44425    163762.44    72.369015    72.369015    36.105914          120    19399.844    18753.758   -35820.419    180.04998    59.203087    907.34138    72.369015    62.673406    36.105914    777.72773   -311570.85 
    1140    424.41145    163770.84    72.370252    72.370252    36.106531          120    19843.799    18990.746   -36119.226    474.20135    384.65117    1394.2348    72.370252    62.674477    36.106531    905.10665   -311579.37 
    1150    424.62317    163779.37    72.371509    72.371509    36.107158          120    20798.123    18983.732   -36035.335    160.17868    692.62754    1423.3277    72.371509    62.675566    36.107158    1248.8401   -311582.31 
    1160    425.25732    163788.11    72.372797    72.372797    36.107801          120    20267.897    18910.201    -36926.72    265.89421    171.18138    1188.1983    72.372797    62.676681    36.107801    750.45935   -311587.26 
    1170     421.4946    163796.94    72.374096    72.374097    36.108449          120    19421.802    18347.412   -36374.391    156.73938    344.74626    701.70826    72.374096    62.677806    36.108449    464.94105   -311582.94 
    1180    420.13623    163805.72     72.37539    72.375391    36.109095          120    18997.323    17926.528   -35245.809   -472.80821    598.36924    462.00584     72.37539    62.678927    36.109095    559.34723   -311583.66 
    1190    421.48669    163814.52    72.376686    72.376686    36.109741          120    19900.199     18515.85   -35170.246   -945.35556   -180.07821    426.92813    72.376686    62.680049    36.109741    1081.9345   -311589.47 
    1200    417.31007    163823.51    72.378009     72.37801    36.110401          120    20466.693    18419.318   -34570.622    236.26448    804.29766    326.01856    72.378009    62.681196    36.110401     1438.463   -311584.94 
    1210    416.86478    163832.75    72.379371    72.379371    36.111081          120    20030.952    17466.054   -35776.001     264.4267     411.0075    506.54728    72.379371    62.682375    36.111081      573.668   -311586.58 
    1220    414.80486    163841.98     72.38073     72.38073    36.111758          120    19092.503    17153.988   -36972.254    83.331763    567.34966    48.698841     72.38073    62.683551    36.111758   -241.92092   -311585.23 
    1230    415.58048    163850.93    72.382048    72.382048    36.112416          120    18940.145    18124.507    -37564.61    719.75682    287.93563       755.54    72.382048    62.684693    36.112416   -166.65251   -311589.93 
    1240    417.99097    163859.59    72.383323    72.383324    36.113053          120    18762.125    18110.447   -37000.523    228.14471   -333.23518    1017.5257    72.383323    62.685798    36.113053   -42.650402    -311597.5 
    1250    413.56944    163868.05    72.384568    72.384569    36.113674          120    18443.543    19176.356   -36375.708   -153.05643    -872.4466    653.78736    72.384568    62.686876    36.113674    414.73039    -311592.1 
    1260    413.17589    163876.44    72.385804    72.385804     36.11429          120    18540.333    19332.488   -36064.162    299.29035   -50.268234    322.69647    72.385804    62.687946     36.11429    602.88633   -311593.83 
    1270    413.50827    163884.83    72.387039    72.387039    36.114906          120    18066.287    18365.805   -36044.454    340.94237     353.2128    199.58592    72.387039    62.689015    36.114906    129.21275   -311596.27 
    1280    412.23122    163893.07    72.388253    72.388254    36.115512          120    17567.765    17252.293   -36347.373    188.96645   -650.92117    339.96187    72.388253    62.690067    36.115512   -509.10493   -311595.87 
    1290     415.5433    163900.96    72.389415    72.389415    36.116092          120    17978.306    17272.271   -36853.523    340.64809   -765.57385    476.17783    72.389415    62.691073    36.116092   -534.31522    -311603.2 
    1300    414.80076    163908.47    72.390519     72.39052    36.116643          120    18384.644    17623.063   -36881.234     -10.9131   -158.77989   -98.543142    72.390519     62.69203    36.116643   -291.17547   -311602.67 
    1310    416.74447    163915.69    72.391582    72.391583    36.117173          120    18741.274     18461.81   -37596.147   -392.46712    351.00808    159.45382    72.391582     62.69295    36.117173   -131.02075   -311607.87 
    1320    413.01596     163922.7    72.392615    72.392615    36.117688          120    19207.868    18631.841   -36776.895   -200.10096     390.5849    849.87199    72.392615    62.693844    36.117688    354.27132   -311601.61 
    1330    415.03774    163929.65    72.393638    72.393638    36.118199          120    19294.481    17693.946   -35844.784   -342.92422    491.07356    376.96654    72.393638     62.69473    36.118199    381.21421   -311606.02 
    1340    412.79987    163936.54    72.394652    72.394653    36.118705          120    18503.201    15767.193   -36253.786    376.86654    107.47768    205.74607    72.394652    62.695608    36.118705   -661.13039   -311602.18 
    1350    410.26149    163943.05     72.39561    72.395611    36.119183          120    19015.544    15249.731   -37450.225    648.96559    295.01717    428.44357     72.39561    62.696438    36.119183     -1061.65   -311597.55 
    1360    410.92623    163949.04    72.396491    72.396492    36.119622          120     19434.06    15480.756   -37063.641    316.61017    206.22909     267.3734    72.396491    62.697201    36.119622   -716.27516   -311598.53 
    1370    414.18981    163954.56    72.397304    72.397305    36.120028          120     18643.94    14885.856   -37512.961    94.562011   -457.57236    142.08616    72.397304    62.697905    36.120028   -1327.7217   -311604.39 
    1380    414.29629     163959.5    72.398031    72.398032     36.12039          120    17725.827    16188.207   -37887.089    243.66136   -710.60724    107.64136    72.398031    62.698535     36.12039   -1324.3515   -311603.38 
    1390    411.81576    163963.84     72.39867     72.39867    36.120709          120    18247.418    16407.714   -38012.973    9.4763936   -1059.0241    145.01615     72.39867    62.699088    36.120709   -1119.2804   -311597.51 
    1400    417.71681    163967.65     72.39923    72.399231    36.120989          120    18051.794    16465.164   -37382.305    325.08914   -1188.7513    552.81376     72.39923    62.699573    36.120989   -955.11557   -311607.86 
    1410    415.62795    163971.01    72.399725    72.399726    36.121236          120    18471.404     16647.65   -37215.429   -126.45173   -857.35979    781.30538    72.399725    62.700002    36.121236   -698.79158   -311602.81 
    1420    412.54952    163974.04    72.400172    72.400172    36.121458          120    18717.973    17127.635   -36446.775   -170.20116   -693.52575    405.00387    72.400172    62.700388    36.121458   -200.38876   -311595.57 
    1430    414.11711    163976.91    72.400594    72.400594    36.121669          120    18542.794    17921.126   -36718.678   -3.6398791    186.65407    566.91979    72.400594    62.700754    36.121669   -84.919326   -311596.48 
    1440    415.67085    163979.67       72.401    72.401001    36.121872          120    18496.642    17635.426   -36909.473    123.92519    453.54588    615.97446       72.401    62.701106    36.121872   -259.13502   -311598.12 
    1450    416.83491    163982.29    72.401385    72.401386    36.122064          120    18553.886    17738.634   -37134.359    55.062407   -451.42221    956.55587    72.401385    62.701439    36.122064    -280.6128    -311598.1 
    1460    415.13945    163984.74    72.401747    72.401747    36.122244          120    18225.089    17863.465   -36220.254    461.19072   -260.76512    930.90618    72.401747    62.701753    36.122244   -43.900048   -311592.36 
    1470    415.05491    163987.12    72.402096    72.402097    36.122419          120    18749.035    18354.112   -36569.205    585.15291     83.01013     1044.075    72.402096    62.702055    36.122419    177.98063   -311590.11 
    1480    419.78512    163989.47    72.402442    72.402443    36.122591          120    18819.456    17493.039   -37211.946    518.46675   -332.46265    181.04439    72.402442    62.702355    36.122591   -299.81705   -311596.36 
    1490    417.55548    163991.65    72.402763    72.402764    36.122751          120    18795.663    16756.047   -38955.351    570.66512   -908.43789   -21.600242    72.402763    62.702633    36.122751    -1134.547   -311589.31 
    1500    422.89219    163993.38    72.403017    72.403018    36.122878          120    18703.521     15606.58   -38578.052    57.008778   -561.25965   -561.86228    72.403017    62.702853    36.122878   -1422.6502   -311597.05 
    1510    421.90274    163994.54    72.403188    72.403189    36.122963          120    18699.476    15647.246   -38574.017   -1055.1517   -328.31113   -693.85376    72.403188    62.703001    36.122963   -1409.0982   -311593.14 
    1520    422.20944    163995.17    72.403282    72.403282     36.12301          120    18451.274    15420.857   -37574.374   -374.43064   -358.67903   -203.87944    72.403282    62.703082     36.12301   -1234.0806   -311591.61 
    1530    421.45103    163995.36    72.403309    72.403309    36.123023          120    18637.424    16453.216   -37428.282    476.53104   -711.85255     214.0213    72.403309    62.703105    36.123023   -779.21402   -311587.51 
    1540    422.09533    163995.22    72.403289    72.403289    36.123014          120     18209.11    16871.238   -37762.299    747.75852    355.93262    383.53764    72.403289    62.703088    36.123014   -893.98351   -311587.11 
    1550    425.48087    163994.77    72.403223    72.403223     36.12298          120    18786.695    15814.132   -37208.805    463.99841    682.23729    704.22243    72.403223    62.703031     36.12298   -869.32571   -311591.43 
    1560    423.80709    163994.03    72.403113    72.403113    36.122926          120    18556.158    16391.146   -36706.961    123.79984   -97.494077    1037.8978    72.403113    62.702935    36.122926   -586.55261    -311585.8 
    1570    421.71658    163993.05    72.402969     72.40297    36.122854          120    17406.889    17839.593    -37115.04    406.90498   -274.02141    1191.8162    72.402969    62.702811    36.122854   -622.85238    -311580.2 
    1580    426.22619    163991.88    72.402797    72.402797    36.122768          120    17570.067    18477.916   -36783.868   -292.33625   -481.62781    1148.1517    72.402797    62.702662    36.122768   -245.29516   -311587.33 
    1590    421.60555    163990.61     72.40261    72.402611    36.122675          120    17705.784    17665.406    -36892.87   -304.84069    313.23522    801.35664     72.40261      62.7025    36.122675   -507.22647   -311576.58 
    1600    422.74633    163989.19    72.402402    72.402402    36.122571          120     18696.91    16524.273   -37127.248   -568.04874     482.1675    1015.2701    72.402402     62.70232    36.122571   -635.35499   -311577.09 
    1610    424.13371    163987.59    72.402165    72.402165    36.122453          120    18525.026    17496.977   -37243.989   -1035.9861    56.196326    93.528771    72.402165    62.702115    36.122453   -407.32868   -311578.45 
    1620    425.76876    163985.86    72.401911    72.401911    36.122326          120    18643.063     17582.32   -36584.709   -420.61587   -208.62492   -706.41724    72.401911    62.701894    36.122326   -119.77562   -311580.63 
    1630    428.71782    163984.12    72.401655    72.401656    36.122199          120    17929.258    18333.663   -35496.876   -215.35674   -546.75587   -421.26199    72.401655    62.701673    36.122199    255.34835   -311585.58 
    1640    431.33543     163982.5    72.401416    72.401416    36.122079          120    18689.374    17504.682   -36565.413    736.41752    -1380.307    531.10389    72.401416    62.701466    36.122079    -123.7857   -311590.76 
    1650    425.59899    163980.87    72.401177    72.401177     36.12196          120    19495.624    17017.552   -37953.225    948.58659   -1535.8119    396.83014    72.401177    62.701259     36.12196   -480.01632   -311578.94 
    1660    427.09953     163979.1    72.400916    72.400917     36.12183          120    19265.494    17130.963   -38812.274   -164.20156    -322.5307    183.76487    72.400916    62.701033     36.12183   -805.27241   -311582.09 
    1670     424.8398    163977.11    72.400622    72.400623    36.121683          120    18671.677    17621.867   -37493.857   -747.90395    217.47923    149.24672    72.400622    62.700779    36.121683   -400.10448   -311577.28 
    1680     427.9524       163975    72.400312    72.400313    36.121529          120    18278.422     18668.35   -36935.515   -988.25924    240.78043    96.790614    72.400312     62.70051    36.121529    3.7524119   -311583.93 
    1690     429.8072    163972.93    72.400008    72.400009    36.121377          120    18315.016    19285.287   -37660.645    -482.7638    692.45938    297.78724    72.400008    62.700247    36.121377   -20.114233   -311588.55 
    1700    425.98165    163970.91    72.399711    72.399711    36.121228          120    18838.131    19181.871   -37942.733    372.02746     761.9015    383.28262    72.399711    62.699989    36.121228    25.756388   -311582.16 
    1710    423.82604    163968.96    72.399423    72.399424    36.121085          120    19088.925    19161.502   -36062.885   -417.87598   -161.44682   -306.03991    72.399423     62.69974    36.121085    729.18079   -311579.54 
    1720    429.80319     163967.3     72.39918     72.39918    36.120963          120        19391    19417.273   -35525.502   -315.56082   -811.20132   -1061.5469     72.39918    62.699529    36.120963    1094.2567   -311592.79 
    1730     426.1055     163966.1    72.399003    72.399003    36.120875          120    19878.818    19574.268   -35044.582    -229.9076     -668.443   -309.38228    72.399003    62.699376    36.120875    1469.5015   -311587.75 
    1740    423.83205    163965.42    72.398903    72.398904    36.120825          120     20206.51    18172.187   -36336.707   -477.94024   -822.81938   -670.20877    72.398903     62.69929    36.120825    680.66333   -311585.43 
    1750    423.37493    163964.99    72.398839    72.398839    36.120793          120    18651.474    17279.322   -37727.751    134.36682   -490.34719   -827.11001    72.398839    62.699234    36.120793   -598.98485   -311587.58 
    1760    424.75733    163964.38    72.398749    72.398749    36.120748          120    18398.236     17142.54   -38198.407    1211.8788   -754.68707   -932.46211    72.398749    62.699156    36.120748   -885.87697   -311592.29 
    1770    419.72174    163963.46    72.398614    72.398614    36.120681          120     18726.18    16833.583   -38174.358    1360.4518   -960.95174    126.51077    72.398614    62.699039    36.120681   -871.53146   -311584.64 
    1780    420.05515    163962.24    72.398435    72.398435    36.120592          120    19648.876    15877.946    -37479.07    1064.7581   -244.04595    1103.3769    72.398435    62.698884    36.120592   -650.74945   -311588.22 
    1790    419.73975    163960.79    72.398221    72.398221    36.120485          120    19995.222    15137.764   -37414.121    559.89988    680.70531    39.867206    72.398221    62.698699    36.120485   -760.37848   -311589.76 
    1800    421.06327    163959.11    72.397973    72.397974    36.120362          120    20457.087    14826.286   -36437.623    302.41552    182.96519   -703.94078    72.397973    62.698485    36.120362   -384.75009   -311595.31 
    1810    422.73265    163957.33    72.397711    72.397712    36.120231          120    20049.948    15302.079   -35603.322    398.83924     646.1791    68.173801    72.397711    62.698258    36.120231   -83.765076   -311600.98 
    1820    421.56535    163955.56    72.397451    72.397451    36.120101          120    18964.262    16565.788    -34987.86    197.09909   -80.990808    179.46009    72.397451    62.698032    36.120101    180.73015   -311601.35 
    1830    419.61944    163953.88    72.397204    72.397204    36.119978          120      19286.1    17327.688   -36043.613    206.80142   -1853.3913   -383.84582    72.397204    62.697818    36.119978    190.05817   -311599.96 
    1840    418.70657    163952.28    72.396969    72.396969     36.11986          120    19442.511    16604.903   -36864.462    -166.9144   -2396.9555   -1125.8273    72.396969    62.697615     36.11986    -272.3494   -311600.72 
    1850    415.57101    163950.64    72.396728    72.396728     36.11974          120    20190.384    16758.366   -37703.897   -23.701049   -1694.0859   -939.64209    72.396728    62.697406     36.11974   -251.71555   -311596.97 
    1860    417.06068    163948.95    72.396479     72.39648    36.119616          120     20347.38    16545.619   -37148.357    236.77507   -1169.9501   -742.91629    72.396479    62.697191    36.119616   -85.119335   -311602.21 
    1870    417.28939    163947.27    72.396231    72.396232    36.119492          120    20060.669    17761.713   -36762.762   -366.63467   -216.29259   -8.6405747    72.396231    62.696976    36.119492    353.20694   -311605.22 
    1880     418.0775    163945.75    72.396007    72.396008    36.119381          120    20070.665    19061.942   -37035.597   -345.32278    92.821272   -361.55997    72.396007    62.696782    36.119381    699.00323   -311609.29 
    1890    415.20229     163944.5    72.395824    72.395825    36.119289          120    19557.924    19166.633   -36106.388    29.731749    175.06821    92.588367    72.395824    62.696623    36.119289    872.72267   -311605.13 
    1900    413.09303    163943.61    72.395692    72.395693    36.119223          120    19972.157    18518.553   -35789.344    138.60731    144.82275    253.37388    72.395692    62.696509    36.119223    900.45541   -311603.32 
    1910    414.77687    163943.06    72.395611    72.395611    36.119183          120    20149.051    17791.918   -36100.007    456.89775    398.78163    310.35787    72.395611    62.696439    36.119183    613.65385   -311608.34 
    1920    411.82058    163942.74    72.395564    72.395564    36.119159          120    20231.192     17739.03   -36586.207    122.03331   -3.6068256    608.11266    72.395564    62.696398    36.119159    461.33841   -311603.58 
    1930    417.47852     163942.6    72.395543    72.395544    36.119149          120    21216.012    17505.573   -36830.541    142.08103   -549.91935    370.87848    72.395543     62.69638    36.119149    630.34781   -311615.53 
    1940    416.26724    163942.71    72.395559     72.39556    36.119157          120    20610.172    18310.718    -36834.23   -95.761821   -210.96636    426.12867    72.395559    62.696394    36.119157    695.55331   -311614.37 
    1950    415.21164    163943.06    72.395611    72.395611    36.119183          120    19019.847    17753.725   -36695.005   -249.36756    255.04019    80.161733    72.395611    62.696439    36.119183    26.188917    -311613.3 
    1960    411.15101    163943.43    72.395666    72.395666     36.11921          120    19161.746    18227.766   -37718.918   -24.488365    -146.6925   -864.19067    72.395666    62.696486     36.11921   -109.80224    -311605.8 
    1970     413.5956    163943.77    72.395716    72.395717    36.119235          120    20236.376    17839.994   -37105.353   -432.77276    107.29438   -721.28919    72.395716     62.69653    36.119235    323.67241   -311610.74 
    1980    414.58051    163944.21    72.395781    72.395781    36.119268          120    20294.233    16945.058   -36101.897   -518.08815   -285.45708   -843.90894    72.395781    62.696586    36.119268    379.13107   -311612.78 
    1990    413.40272    163944.79    72.395865    72.395866     36.11931          120    20131.781    16616.873   -36011.136   -152.93073    148.21814   -455.45703    72.395865    62.696659     36.11931    245.83949   -311610.76 
    2000    411.71029    163945.45    72.395963    72.395963    36.119358          120    19731.828    17792.083   -37550.297    210.38913    614.43525   -264.77422    72.395963    62.696743    36.119358   -8.7950981   -311606.65 
    2010    415.00326     163946.1    72.396058    72.396059    36.119406          120    19023.125    17576.113    -37248.88   -163.98351    271.00646    460.07768    72.396058    62.696826    36.119406   -216.54695   -311612.24 
    2020    412.60461    163946.67    72.396142    72.396143    36.119448          120    18864.192    17668.691   -36934.253    605.95931   -401.44427    1152.7132    72.396142    62.696899    36.119448   -133.78975   -311607.35 
    2030    415.57906     163947.2     72.39622    72.396221    36.119487          120    19441.656    18100.336   -35991.661    939.50014   -581.22703    1549.6407     72.39622    62.696967    36.119487    516.77704   -311611.75 
    2040    416.61099    163947.88     72.39632    72.396321    36.119537          120     19441.17    17958.357   -36009.734    92.437864    -196.1392    825.63958     72.39632    62.697053    36.119537    463.26413   -311612.21 
    2050    417.25573     163948.7    72.396442    72.396442    36.119597          120    19267.991     17529.39   -37022.146    579.67216    -486.0715    1102.5511    72.396442    62.697158    36.119597   -74.921752   -311611.61 
    2060    411.65149    163949.49    72.396557    72.396558    36.119655          120    19048.165    16892.396   -36553.445    434.21337   -122.19135    687.35348    72.396557    62.697258    36.119655   -204.29489   -311599.27 
    2070    419.48416    163950.18     72.39666    72.396661    36.119706          120    18684.037    17248.519   -35614.502    283.76673    -1392.024   -741.59129     72.39666    62.697347    36.119706    106.01809   -311612.43 
    2080    416.43201    163950.92    72.396768    72.396768     36.11976          120    19000.882     17895.32   -35398.658    829.45483   -1394.0756   -649.54633    72.396768    62.697441     36.11976     499.1815   -311604.51 
    2090    418.59746    163951.79    72.396896    72.396896    36.119824          120    18631.365     17913.72   -35728.191    163.61355   -680.79317   -182.95843    72.396896    62.697551    36.119824    272.29805   -311607.13 
    2100    416.99195    163952.76     72.39704     72.39704    36.119896          120    19063.153    17704.156    -35332.34    -313.0887   -1188.2249    353.64678     72.39704    62.697676    36.119896    478.32279   -311601.55 
    2110    416.65175    163953.87    72.397202    72.397203    36.119977          120    18455.024    17195.384   -35924.713   -402.64407   -749.63825    292.80046    72.397202    62.697817    36.119977    -91.43491   -311598.62 
    2120    424.26644    163954.96    72.397362    72.397363    36.120057          120    19103.354    17734.035   -36162.585   -135.61705    252.67691    541.60116    72.397362    62.697956    36.120057    224.93464   -311611.35 
    2130    419.00044     163956.1    72.397531    72.397532    36.120141          120    19992.186    17554.636   -36256.813   -284.40898   -395.14042    488.11328    72.397531    62.698102    36.120141    430.00293   -311598.93 
    2140    418.08291     163957.4    72.397721    72.397722    36.120236          120    19981.872    17170.505   -35448.373   -113.12668   -339.92071    473.22067    72.397721    62.698267    36.120236    568.00107   -311595.04 
    2150    420.16388    163958.86    72.397937    72.397938    36.120344          120    19506.755    17298.157   -36145.802    -264.2412   -560.07027     1395.101    72.397937    62.698453    36.120344    219.70344   -311596.93 
    2160    419.12635    163960.39    72.398163    72.398163    36.120456          120    19468.223    17819.469   -36664.496   -250.66428   -1847.4591    469.73319    72.398163    62.698649    36.120456    207.73193   -311592.69 
    2170    422.08197    163961.97    72.398394    72.398395    36.120572          120    19618.535    18284.814   -36619.287     165.4397    -2194.251    80.011264    72.398394    62.698849    36.120572    428.02058   -311595.87 
    2180    425.40551    163963.65    72.398642    72.398643    36.120695          120    19273.108    18182.043   -37411.361    551.30727   -1169.2862   -875.08778    72.398642    62.699064    36.120695    14.596728   -311599.47 
    2190    419.98183    163965.34     72.39889    72.398891    36.120819          120    19876.848    17099.068   -36493.545    712.21051   -920.80805   -1014.9786     72.39889    62.699279    36.120819    160.79044   -311587.36 
    2200    428.78988    163967.05    72.399142    72.399143    36.120945          120    20469.419    17262.313   -35558.596    280.03947    -648.2282   -832.70972    72.399142    62.699497    36.120945    724.37855   -311602.34 
    2210     425.1423    163968.98    72.399427    72.399427    36.121087          120    19978.163    17833.683   -36128.204    245.25108   -394.59142   -595.92002    72.399427    62.699743    36.121087    561.21393   -311593.18 
    2220    422.65865    163971.06    72.399732    72.399733    36.121239          120    18450.095    17328.183    -36937.74   -383.42297    34.321698   -192.36261    72.399732    62.700008    36.121239   -386.48735    -311586.6 
    2230    425.60414    163972.98    72.400016    72.400016    36.121381          120    18566.546    17416.944   -37484.152   -56.628733    306.07393    680.43726    72.400016    62.700254    36.121381   -500.22082   -311590.89 
    2240    424.06929     163974.7    72.400269    72.400269    36.121507          120    18637.199     17707.04   -37314.893    554.12076    159.47146    1035.2585    72.400269    62.700473    36.121507   -323.55136   -311586.76 
    2250     424.7709    163976.29    72.400502    72.400503    36.121623          120    19357.521    17204.952   -36466.454   -214.43046    109.15443    298.46723    72.400502    62.700675    36.121623     32.00615   -311587.68 
    2260    428.48337    163977.84     72.40073     72.40073    36.121737          120    20020.474    16429.514   -35967.114    48.659468   -972.39106    190.71164     72.40073    62.700872    36.121737    160.95784   -311593.94 
[...]
   99200    421.53812    164534.66    72.482588    72.482588    36.162577          120    22207.421    18159.087   -38240.824    838.43345    1692.4997     372.0349    72.482588    62.771763    36.162577    708.56139   -311680.47 
   99210    423.82154    164528.53    72.481688    72.481688    36.162128          120    22386.814    17814.796   -37341.262    1448.9798     1657.514     1162.846    72.481688    62.770984    36.162128    953.44917   -311685.22 
   99220     420.8148    164522.73    72.480836    72.480837    36.161703          120     22576.07    17179.274     -38001.1    1389.8655    1337.2818    721.83223    72.480836    62.770246    36.161703    584.74802   -311678.87 
   99230     418.4209    164517.14    72.480015    72.480016    36.161293          120    21453.931    17185.054   -37760.217    982.03423    597.74563    262.72975    72.480015    62.769535    36.161293     292.9227   -311674.27 
   99240     423.5345    164511.67    72.479213    72.479213    36.160893          120    21957.425    17533.282   -37356.633    946.75345    609.26533    588.62041    72.479213     62.76884    36.160893    711.35823   -311684.66 
   99250    420.97575    164506.46    72.478447    72.478448    36.160511          120    21628.426    17591.659   -36017.467    1383.4685    1507.8956    515.83819    72.478447    62.768177    36.160511    1067.5393   -311680.24 
   99260    420.38328    164501.65    72.477741    72.477741    36.160159          120    21831.762    18362.324   -36081.647    527.06971    1714.3435    1171.6344    72.477741    62.767565    36.160159     1370.813   -311679.56 
   99270    422.54217    164497.32    72.477104    72.477105    36.159841          120    21496.063    18128.874   -36714.141    892.01798    694.32419    358.97945    72.477104    62.767014    36.159841    970.26539   -311683.54 
   99280     420.2478    164493.35    72.476522    72.476523    36.159551          120     21950.89    18064.136   -38237.764    1018.3612    1053.6761    763.26122    72.476522     62.76651    36.159551    592.42067   -311679.52 
   99290    419.43058    164489.63    72.475975    72.475975    36.159278          120    22300.394    17597.789   -38413.432    147.56221     789.7888    640.24042    72.475975    62.766036    36.159278    494.91699   -311678.21 
   99300    420.66294    164486.06    72.475451    72.475452    36.159016          120    21800.972     16971.13   -38077.999    103.33784    1546.6758    496.95609    72.475451    62.765583    36.159016    231.36758   -311680.71 
   99310    420.42352     164482.6    72.474943    72.474943    36.158763          120    22697.048    17855.797   -37481.711   -55.986474    1916.8467    765.78666    72.474943    62.765142    36.158763    1023.7113   -311680.31 
   99320    419.44229    164479.52     72.47449    72.474491    36.158537          120    23125.658    18995.623   -36734.793    -330.8456    2170.2699    1039.7901     72.47449     62.76475    36.158537    1795.4958   -311678.29 
   99330    419.11165    164477.07    72.474131    72.474131    36.158358          120    22897.536    18524.898   -36311.657    475.77086     2574.947    944.51523    72.474131    62.764439    36.158358    1703.5924   -311677.66 
   99340    423.04253    164475.24    72.473862    72.473863    36.158224          120    22364.698    17965.528   -36524.859    582.52908    1516.6674    591.49608    72.473862    62.764206    36.158224    1268.4555    -311685.5 
   99350    416.17904    164473.89    72.473663    72.473664    36.158124          120    22141.856     16949.61   -37180.235    442.90463    1449.3911    93.179231    72.473663    62.764034    36.158124    637.07685   -311672.65 
   99360    417.57273    164472.78    72.473501    72.473501    36.158043          120     23039.91    16206.902   -38314.186    636.78436    646.39546    229.81971    72.473501    62.763893    36.158043    310.87529   -311675.36 
   99370    421.66685    164471.79    72.473356    72.473356    36.157971          120    22214.808    16036.693   -37320.958     648.6123    480.95299    617.97659    72.473356    62.763768    36.157971    310.18094   -311683.85 
   99380    422.32571    164470.93    72.473229     72.47323    36.157908          120     21476.83    16984.365   -36592.683    413.36925    495.51908    639.83704    72.473229    62.763658    36.157908    622.83737   -311685.12 
   99390    422.34809     164470.3    72.473137    72.473137    36.157862          120    22051.237    16899.688    -36199.39    623.47976    1660.9522    1679.5036    72.473137    62.763578    36.157862    917.17828   -311685.61 
   99400    421.59025       164470    72.473092    72.473092    36.157839          120    22079.839    16747.259   -36203.749    643.87581    1498.2811    959.30237    72.473092    62.763539    36.157839    874.44939   -311684.55 
   99410    421.11014    164470.02    72.473095    72.473095    36.157841          120    21965.687    16713.892   -36132.858    1149.1788    1572.3859    346.14485    72.473095    62.763542    36.157841    848.90691   -311684.04 
   99420    418.59316    164470.38    72.473147    72.473148    36.157867          120    22772.791    16008.169   -36091.539    971.02101    2387.4904    237.83985    72.473147    62.763587    36.157867    896.47368   -311680.04 
   99430    419.33118    164471.06    72.473249    72.473249    36.157918          120    22829.275     16397.67   -37474.279    821.46089    2846.7144    487.52075    72.473249    62.763675    36.157918     584.2222   -311682.18 
   99440    418.06044    164472.01    72.473387    72.473387    36.157986          120    23501.169    16925.241   -37140.185    23.673583    2004.6109    719.08354    72.473387    62.763795    36.157986    1095.4083   -311679.39 
   99450    415.90326    164473.32     72.47358    72.473581    36.158083          120    23014.075    18068.556   -38842.723    18.996546    1697.5768    867.36099     72.47358    62.763962    36.158083      746.636   -311675.84 
   99460    420.06826    164474.92    72.473815    72.473816      36.1582          120     22024.96    18242.491   -39880.514   -991.59625    1103.9933    266.58749    72.473815    62.764166      36.1582    128.97908   -311683.99 
   99470    420.04015    164476.59     72.47406    72.474061    36.158322          120    21927.597    17373.929   -39092.544   -343.39752    1233.7482    125.17542     72.47406    62.764378    36.158322    69.660811   -311683.87 
   99480    418.93884     164478.3    72.474312    72.474313    36.158448          120    22172.351    17731.044    -38176.18    563.36037    1132.6228    332.64577    72.474312    62.764596    36.158448    575.73848   -311682.18 
   99490    419.60531    164480.25    72.474598    72.474598     36.15859          120    22978.545    18400.349   -37091.098    251.11682    806.19582    709.23973    72.474598    62.764843     36.15859    1429.2653   -311683.16 
   99500    419.53254    164482.68    72.474955    72.474955    36.158769          120    22881.436    18008.056   -37107.915     442.5716    1090.9161    399.12985    72.474955    62.765153    36.158769    1260.5253   -311683.58 
   99510    421.43697    164485.57    72.475379    72.475379     36.15898          120    21741.721    17729.385   -38045.371     738.7212    1211.6255    384.73065    72.475379     62.76552     36.15898     475.2451   -311687.54 
   99520    420.50786    164488.64     72.47583     72.47583    36.159205          120    21164.589    17179.852   -39081.312    496.39104     996.7542    53.152389     72.47583     62.76591    36.159205   -245.62361   -311686.06 
   99530    416.81853    164491.67    72.476275    72.476276    36.159427          120    22112.997    16962.926   -37824.981    681.85756    1777.2516    840.24998    72.476275    62.766296    36.159427    416.98058   -311679.24 
   99540    417.97142    164494.87    72.476745    72.476745    36.159662          120    22609.889    17792.581   -36303.453    396.43305    1494.2988     1062.472    72.476745    62.766703    36.159662     1366.339   -311682.02 
   99550    415.99797    164498.57    72.477288    72.477289    36.159933          120    23697.782      17124.2   -36107.542    361.63947    1814.5711    1551.1422    72.477288    62.767173    36.159933      1571.48   -311678.25 
   99560    418.19759    164502.84    72.477916    72.477916    36.160246          120    22420.515    15725.628   -36068.668   -215.98068    1547.7586    1640.9185    72.477916    62.767717    36.160246    692.49164   -311682.46 
   99570    414.36057     164507.4    72.478585    72.478585     36.16058          120    22085.706    15498.394   -37281.019   -59.412095    1042.3618    1955.9291    72.478585    62.768296     36.16058      101.027   -311675.22 
   99580      417.479    164512.01    72.479262    72.479263    36.160918          120    21949.575     16563.54   -38328.654    287.61604    354.59784    723.28683    72.479262    62.768883    36.160918    61.487044   -311680.88 
   99590    420.82597    164516.69    72.479949    72.479949     36.16126          120    22526.651    16729.501   -37959.205   -11.388662    822.70974    249.83327    72.479949    62.769478     36.16126    432.31556   -311687.16 
   99600    420.12554    164521.51    72.480657    72.480658    36.161614          120    21213.199    16432.699   -37962.911   -241.49353    1298.5145    396.23708    72.480657    62.770091    36.161614   -105.67103   -311685.55 
   99610    420.34242    164526.29     72.48136     72.48136    36.161964          120    20818.609    16051.204   -38252.201   -22.977733    587.15835   -211.89254     72.48136      62.7707    36.161964   -460.79606   -311685.96 
   99620    417.43654    164530.93    72.482041    72.482041    36.162304          120    21422.137    16435.217   -38352.727   -307.21032    1396.6402   -301.04101    72.482041    62.771289    36.162304   -165.12445   -311679.75 
   99630    418.27515     164535.5    72.482712    72.482712    36.162639          120     21221.22    16608.554   -39297.572    -37.02208    1732.3622    865.82627    72.482712    62.771871    36.162639   -489.26586   -311681.05 
   99640    422.05625     164539.9    72.483358    72.483358    36.162961          120    20659.551    15578.969     -38585.6    698.16504    1227.3272    1271.0304    72.483358     62.77243    36.162961   -782.36006   -311688.06 
   99650    417.33359    164544.01    72.483961    72.483961    36.163262          120     19682.73    15423.565   -39027.006    596.92137    1135.8715    541.76717    72.483961    62.772952    36.163262   -1306.9036   -311678.62 
   99660    420.14181    164547.66    72.484497    72.484497    36.163529          120    19301.569    16220.365    -39240.38      281.957    1995.2496     923.2961    72.484497    62.773416    36.163529   -1239.4823   -311682.95 
   99670    423.55891    164550.86    72.484968    72.484968    36.163764          120    20375.963    16805.828   -38635.287     747.6761    2604.9444    1057.4119    72.484968    62.773824    36.163764   -484.49842   -311688.96 
   99680    419.53572    164553.91    72.485416    72.485416    36.163988          120    21109.455    17571.771   -37773.168    565.36592    1780.8435    979.50505    72.485416    62.774212    36.163988    302.68582   -311680.21 
   99690     419.6388    164557.05    72.485876    72.485877    36.164218          120    20787.748    17247.085   -38031.648    774.69512    684.79612    1431.3732    72.485876    62.774611    36.164218    1.0616646   -311679.57 
   99700    423.60681    164560.18    72.486335    72.486336    36.164447          120    20925.594    16535.547   -38929.699    433.06644      797.056    1847.5512    72.486335    62.775008    36.164447    -489.5192   -311685.86 
   99710    418.21255    164563.17    72.486774    72.486775    36.164666          120    20714.777    16589.108   -38159.527    613.35359    942.72948    1215.8369    72.486774    62.775389    36.164666   -285.21364    -311674.7 
   99720    421.40657    164566.02    72.487194    72.487194    36.164875          120     20153.59    16330.199   -38922.261    901.57291    1742.9396    960.50666    72.487194    62.775752    36.164875   -812.82412   -311679.92 
   99730    418.90396    164568.63    72.487577    72.487578    36.165066          120    21438.131    16861.972   -38481.493    808.48777    1787.6909    508.05993    72.487577    62.776084    36.165066   -60.463485   -311674.21 
   99740    421.97956    164571.21    72.487955    72.487955    36.165255          120    22372.151    16840.047   -38240.246     451.0899    787.10325    711.44126    72.487955    62.776411    36.165255     323.9839    -311678.9 
   99750    422.58658     164573.9     72.48835     72.48835    36.165452          120    23053.191    16661.597   -38286.872    747.31167    1236.7272    285.10388     72.48835    62.776753    36.165452    475.97198      -311679 
   99760    422.40478    164576.77    72.488772    72.488772    36.165662          120    22605.978    16126.552    -37337.95    688.58551    2270.9334   -205.71192    72.488772    62.777118    36.165662    464.85988   -311677.51 
   99770    422.37502    164579.83    72.489221    72.489221    36.165886          120    22956.639    16542.138   -38280.117     506.4857    1889.4773     237.3089    72.489221    62.777507    36.165886    406.22025   -311676.12 
   99780    419.90267    164583.04    72.489692    72.489693    36.166121          120    22714.598    16798.567   -38510.053    888.47342    2029.9621    8.6216497    72.489692    62.777916    36.166121    334.37056   -311670.65 
   99790     425.1622    164586.39    72.490184    72.490184    36.166367          120    21685.245    17755.753    -38499.16    850.45862    2097.0842    522.21074    72.490184    62.778341    36.166367    313.94577   -311680.03 
   99800    426.80323    164589.85    72.490692    72.490693     36.16662          120    21285.036    16549.358   -38128.881   -65.176186    1870.6236    715.91494    72.490692    62.778782     36.16662   -98.162158   -311682.08 
   99810    422.06711    164593.32    72.491201    72.491202    36.166874          120    21291.351     17488.57   -38303.848   -136.77096    1884.0728    1215.9855    72.491201    62.779223    36.166874    158.69103    -311672.1 
   99820    424.47292    164596.84    72.491718    72.491718    36.167132          120     21159.63    17016.351   -37932.234   -24.962201    1591.9925    910.31102    72.491718     62.77967    36.167132    81.249153   -311677.14 
   99830    420.18929     164600.4     72.49224     72.49224    36.167393          120    21156.013    16003.519   -37483.478   -45.717969    894.00445    1393.9078     72.49224    62.780122    36.167393   -107.98201    -311668.7 
   99840    420.60818    164603.93    72.492758    72.492759    36.167651          120    20795.798    15834.048   -37069.677    502.43416    470.73684    1263.6098    72.492758    62.780571    36.167651   -146.61014    -311669.4 
   99850      422.322     164607.4    72.493269    72.493269    36.167906          120    20609.971    16449.936   -38686.729    327.12812    286.26765    713.23318    72.493269    62.781013    36.167906   -542.27393    -311672.6 
   99860    424.24243    164610.68    72.493749     72.49375    36.168145          120    20322.734    16191.772   -39691.877    346.31764    1129.1357    804.02344    72.493749    62.781429    36.168145   -1059.1237   -311676.75 
   99870    419.08337    164613.55     72.49417    72.494171    36.168356          120    20090.784    16034.426   -39966.268    574.11515    2913.7873    422.19925     72.49417    62.781794    36.168356   -1280.3527   -311666.99 
   99880    426.56551    164615.93    72.494521    72.494522    36.168531          120    20869.631    15805.911   -40394.541    1465.2169    3280.7759    182.92735    72.494521    62.782098    36.168531    -1239.666   -311681.68 
   99890     419.7751    164617.88    72.494807    72.494808    36.168673          120    21255.634    16284.495   -39904.043    1023.4687    2331.6365    406.17284    72.494807    62.782345    36.168673   -787.97125   -311668.47 
   99900    421.95836    164619.55    72.495052    72.495052    36.168795          120    21476.843    16740.343   -38138.604    976.04828    1771.2273    410.97068    72.495052    62.782557    36.168795    26.194156   -311673.24 
   99910      418.995    164621.17     72.49529    72.495291    36.168914          120    21828.212    15937.157   -37772.469     980.3937    2446.6807    920.29217     72.49529    62.782764    36.168914   -2.3664633   -311667.95 
   99920    425.66608    164622.78    72.495526    72.495526    36.169032          120    22984.249    15071.578   -38929.457    149.26276    1023.3219    755.26027    72.495526    62.782968    36.169032   -291.20989    -311681.8 
   99930    425.70049     164624.3     72.49575     72.49575    36.169144          120     22872.79    15596.194   -39013.752    363.50014    638.06877    554.68262     72.49575    62.783161    36.169144   -181.58928   -311682.39 
   99940    420.01496    164625.77    72.495964    72.495965    36.169251          120     22164.31    15927.746   -38647.698    617.28739   -178.59016    187.52099    72.495964    62.783347    36.169251    -185.2142   -311672.24 
   99950    422.14573    164627.17     72.49617    72.496171    36.169353          120    21674.612     15783.16   -37185.344    624.79528   -32.418039    528.18164     72.49617    62.783526    36.169353    90.809729   -311678.31 
   99960    420.57137    164628.59    72.496379    72.496379    36.169458          120    22166.986    15931.535   -38059.424    1092.8848     811.5607    569.72303    72.496379    62.783706    36.169458    13.032273   -311676.94 
   99970    420.75758    164630.02    72.496588    72.496589    36.169562          120    21009.741    16574.065   -39074.782    1080.4989    1347.8365    374.57996    72.496588    62.783888    36.169562   -496.99187   -311679.39 
   99980    420.06143    164631.27    72.496773    72.496773    36.169654          120    20894.803    15487.409   -38784.218    610.58269    1080.5059    284.27459    72.496773    62.784048    36.169654    -800.6687   -311680.41 
   99990    420.88361    164632.23    72.496914    72.496914    36.169724          120    21589.625    14745.865   -38884.431    1531.7705    1151.5966    970.69408    72.496914     62.78417    36.169724   -849.64722   -311684.19 
  100000    420.83162    164632.89     72.49701    72.497011    36.169773          120    21257.631    15942.447   -38727.087    1170.6465    1772.3846    1790.2482     72.49701    62.784253    36.169773    -509.0031   -311686.08 
Loop time of 32899.4 on 1 procs for 100000 steps with 14848 atoms

Performance: 0.263 ns/day, 91.387 hours/ns, 3.040 timesteps/s
93.4% CPU use with 1 MPI tasks x no OpenMP threads

MPI task timing breakdown:
Section |  min time  |  avg time  |  max time  |%varavg| %total
---------------------------------------------------------------
Pair    | 26225      | 26225      | 26225      |   0.0 | 79.71
Bond    | 0.02791    | 0.02791    | 0.02791    |   0.0 |  0.00
Kspace  | 1599.5     | 1599.5     | 1599.5     |   0.0 |  4.86
Neigh   | 4380.1     | 4380.1     | 4380.1     |   0.0 | 13.31
Comm    | 45.136     | 45.136     | 45.136     |   0.0 |  0.14
Output  | 1.1032     | 1.1032     | 1.1032     |   0.0 |  0.00
Modify  | 637.23     | 637.23     | 637.23     |   0.0 |  1.94
Other   |            | 11.39      |            |       |  0.03

Nlocal:    14848 ave 14848 max 14848 min
Histogram: 1 0 0 0 0 0 0 0 0 0
Nghost:    46661 ave 46661 max 46661 min
Histogram: 1 0 0 0 0 0 0 0 0 0
Neighs:    9.99553e+06 ave 9.99553e+06 max 9.99553e+06 min
Histogram: 1 0 0 0 0 0 0 0 0 0

Total # of neighbors = 9995527
Ave neighs/atom = 673.19
Ave special neighs/atom = 0
Neighbor list builds = 15628
Dangerous builds = 0
 
All done!
Total wall time: 9:13:26
