LAMMPS (16 Mar 2018)
Reading data file ...
  triclinic box = (0 0 0) to (9.208 7.97436 18.376) with tilt (-4.604 0 0)
  1 by 1 by 1 MPI processor grid
  reading atoms ...
  116 atoms
Finding 1-2 1-3 1-4 neighbors ...
  special bond factors lj:   0          0          0         
  special bond factors coul: 0          0          0         
  0 = max # of 1-2 neighbors
  0 = max # of 1-3 neighbors
  0 = max # of 1-4 neighbors
  1 = max # of special neighbors
Replicating atoms ...
  triclinic box = (0 0 0) to (73.664 63.7949 36.752) with tilt (-36.832 0 0)
  1 by 1 by 1 MPI processor grid
  14848 atoms
Finding 1-2 1-3 1-4 neighbors ...
  special bond factors lj:   0          0          0         
  special bond factors coul: 0          0          0         
  0 = max # of 1-2 neighbors
  0 = max # of 1-3 neighbors
  0 = max # of 1-4 neighbors
  1 = max # of special neighbors
  Time spent = 0.00360084 secs
PPPM initialization ...
WARNING: System is not charge neutral, net charge = -0.2048 (../kspace.cpp:302)
  using 12-bit tables for long-range coulomb (../kspace.cpp:321)
  G vector (1/distance) = 0.201681
  grid = 36 50 24
  stencil order = 5
  estimated absolute RMS force accuracy = 0.00105653
  estimated relative force accuracy = 7.33721e-05
  using double precision FFTs
  3d grid and FFT values/proc = 65395 43200
Neighbor list info ...
  update every 1 steps, delay 0 steps, check yes
  max neighbors/atom: 2000, page size: 100000
  master list distance cutoff = 15.3
  ghost atom cutoff = 15.3
  binsize = 7.65, bins = 15 9 5
  3 neighbor lists, perpetual/occasional/extra = 3 0 0
  (1) pair morse, perpetual
      attributes: half, newton on
      pair build: half/bin/newton/tri
      stencil: half/bin/3d/newton/tri
      bin: standard
  (2) pair buck, perpetual, copy from (1)
      attributes: half, newton on
      pair build: copy
      stencil: none
      bin: none
  (3) pair lj/cut/coul/long, perpetual, copy from (1)
      attributes: half, newton on
      pair build: copy
      stencil: none
      bin: none
Setting up Verlet run ...
  Unit style    : metal
  Current step  : 0
  Time step     : 0.001
Per MPI rank memory allocation (min/avg/max) = 145.7 | 145.7 | 145.7 Mbytes
Step Temp Volume Cella Cellb Cellc CellGamma Pxx Pyy Pzz Pxy Pxz Pyz Lx Ly Lz Press PotEng 
       0          500    172711.88       73.664    73.664001       36.752          120   -205539.11    -205624.9   -276598.83    40.668945   -12.715189    17.004727       73.664    63.794896       36.752   -229254.28   -309191.56 
      10    454.37985    172672.15    73.658351    73.658351    36.749182          120    -204176.6   -204263.16   -251010.16    138.61234   -34.835836   -224.60186    73.658351    63.790004    36.749182   -219816.64      -309126 
      20    741.43806    172556.16    73.641855    73.641855    36.740951          120   -196581.93   -196328.15   -189797.06    52.466084   -280.83031   -493.53214    73.641855    63.775717    36.740951   -194235.71   -309698.64 
      30    789.72967    172373.79    73.615902    73.615902    36.728003          120   -161433.87   -161260.18   -110481.21   -175.44614   -854.06224   -529.20177    73.615902    63.753242    36.728003   -144391.75   -309825.58 
      40    567.89346    172143.68    73.583129     73.58313    36.711653          120   -111387.06   -111872.85   -30494.838   -970.59313    -1165.026   -533.98255    73.583129     63.72486    36.711653   -84584.917   -309421.21 
      50    667.07104    171887.95    73.546674    73.546675    36.693464          120   -75939.626   -76943.746   -6230.0642   -590.53452   -1022.7406   -647.20845    73.546674    63.693289    36.693464   -53037.812   -309620.19 
      60    932.60454     171620.5    73.508509     73.50851    36.674423          120   -61413.884   -61092.987   -50511.351   -956.51171   -1888.4932   -567.12009    73.508509    63.660237    36.674423   -57672.741      -310146 
      70    1077.2251    171344.21    73.469041    73.469042    36.654732          120   -53408.488   -53629.447   -114313.98     -1911.99   -2474.4791   -780.03847    73.469041    63.626057    36.654732   -73783.973   -310464.07 
      80    950.07513    171057.98    73.428108    73.428109     36.63431          120   -49605.808   -51296.482   -159256.99   -1937.9987   -2506.9308   -35.577942    73.428108    63.590608     36.63431   -86719.759   -310266.92 
      90    707.65146    170762.13    73.385752    73.385753    36.613178          120   -46028.539    -46679.39   -171679.51   -2059.9519   -2975.2011   -1000.8715    73.385752    63.553926    36.613178   -88129.147   -309840.85 
     100    725.88531    170461.31    73.342634    73.342635    36.591666          120   -29835.187   -30019.038   -150442.26   -1909.4903   -2697.8677   -1321.3262    73.342634    63.516585    36.591666   -70098.827   -309909.44 
     110    885.54166    170165.53    73.300189     73.30019     36.57049          120   -9860.8539   -10428.019   -109843.62   -1922.0589   -1133.8139   -1705.8206    73.300189    63.479827     36.57049   -43377.497   -310253.53 
     120    906.90656    169886.05    73.260037    73.260038    36.550457          120    771.31038    671.59254   -62963.237   -1856.9685   -653.59516   -1718.8977    73.260037    63.445054    36.550457   -20506.778   -310335.49 
     130    815.34785    169630.69    73.223312    73.223312    36.532134          120    761.06045    1866.9837   -26027.874    -1494.492   -840.72324   -1848.9965    73.223312    63.413249    36.532134   -7799.9433   -310196.75 
     140    766.46562    169401.95    73.190385    73.190385    36.515707          120   -3368.4409   -3465.2173   -12543.229   -856.74232   -859.10191   -1983.8368    73.190385    63.384733    36.515707   -6458.9624   -310133.45 
     150    803.58551    169197.35    73.160907    73.160908       36.501          120   -10733.293   -9918.2875   -31107.925   -1742.3134   -460.00006   -1698.2984    73.160907    63.359205       36.501   -17253.169   -310235.39 
     160    864.71218    169010.42    73.133953    73.133954    36.487552          120   -19628.577   -18754.703   -63414.438   -1459.9928   -1326.8888   -2213.8053    73.133953    63.335862    36.487552   -33932.573   -310390.84 
     170    864.64177    168833.36    73.108406    73.108407    36.474806          120   -24113.286    -23055.13   -92620.821    -1012.335   -1951.8396   -2093.7615    73.108406    63.313738    36.474806   -46596.412   -310432.53 
     180    797.34921    168660.22    73.083407    73.083407    36.462334          120   -23009.543   -21152.396   -111384.21    -1166.751   -2406.5671   -2198.5894    73.083407    63.292087    36.462334   -51848.717   -310344.94 
     190    765.70465    168487.93    73.058512    73.058512    36.449914          120    -19175.35   -17272.245   -112533.05   -736.37388   -2499.7775   -2200.8447    73.058512    63.270528    36.449914   -49660.214   -310322.21 
     200    794.60771    168316.05    73.033661    73.033662    36.437515          120   -14861.968   -14422.052   -96860.706   -1205.6766   -2063.9917   -2051.1787    73.033661    63.249006    36.437515   -42048.242   -310414.78 
     210    814.54352    168145.96    73.009051    73.009052    36.425237          120   -10367.968    -10347.44   -75585.918   -1495.1719   -1923.3512   -1680.9786    73.009051    63.227694    36.425237   -32100.442      -310491 
     220    797.72584    167979.72    72.984982    72.984983    36.413229          120    -7853.626   -6019.0224   -57457.878   -1540.5051   -1212.8706   -2689.4181    72.984982     63.20685    36.413229   -23776.842   -310496.07 
     230      778.166    167818.82    72.961673    72.961673    36.401599          120   -7742.7103   -6251.7733   -48191.603   -1034.8912   -792.39589   -3286.7275    72.961673    63.186663    36.401599   -20728.696   -310493.39 
     240    769.84668    167663.21    72.939114    72.939115    36.390344          120   -10394.968   -8314.5372   -49237.432   -644.41844   -1884.5681   -3662.7838    72.939114    63.167127    36.390344   -22648.979   -310512.79 
     250    782.10719    167511.36    72.917088    72.917088    36.379355          120   -13550.608   -11821.138   -60575.976   -427.40011   -2491.8601    -3259.091    72.917088    63.148051    36.379355   -28649.241   -310572.02 
     260     791.5564    167360.84    72.895241    72.895241    36.368455          120   -15083.483    -14873.39   -73425.602   -625.76765   -2382.4241   -3434.6203    72.895241    63.129131    36.368455   -34460.825   -310628.53 
     270    772.78501    167209.47    72.873258    72.873258    36.357488          120   -14334.057    -16191.89   -84011.299   -147.23915   -2236.1301   -3060.6433    72.873258    63.110093    36.357488   -38179.082   -310630.88 
     280    751.58723    167055.99    72.850954    72.850954     36.34636          120   -13939.196   -13838.735   -86710.589    -165.6766   -1781.8735   -1671.3036    72.850954    63.090777     36.34636    -38162.84   -310627.56 
     290    747.43075     166900.5    72.828345    72.828345     36.33508          120   -10152.791   -7852.3229   -80084.139    244.99456   -1218.4078   -2080.5499    72.828345    63.071197     36.33508   -32696.418   -310655.15 
     300    752.57759    166744.71    72.805678    72.805679    36.323771          120   -6184.8864   -3497.0753   -68891.087    531.85879   -1486.8407   -1773.5452    72.805678    63.051568    36.323771   -26191.016   -310699.77 
     310    745.19662    166590.74    72.783262    72.783263    36.312588          120   -3034.4358   -1585.0861   -56562.318    87.012223   -220.73694   -2257.1687    72.783262    63.032155    36.312588   -20393.947   -310719.57 
     320    731.84943    166440.31    72.761347    72.761348    36.301654          120   -1461.5318   -1255.4651   -47767.987    350.06178   -310.92179   -1545.1078    72.761347    63.013176    36.301654   -16828.328    -310727.6 
     330    725.03065    166294.37    72.740075    72.740076    36.291041          120   -1506.4901   -1010.7413   -43824.746    226.93432   -594.43707   -2025.0674    72.740075    62.994754    36.291041   -15447.326   -310747.18 
     340    722.59102    166153.13    72.719475    72.719476    36.280763          120   -3251.7235   -705.00483   -48196.183   -124.48851   -710.79076   -1931.9354    72.719475    62.976914    36.280763   -17384.304    -310774.7 
     350    724.10248    166015.77     72.69943    72.699431    36.270763          120    -4338.628   -1568.1018   -58153.473   -565.82282   -1139.5893   -1730.0729     72.69943    62.959554    36.270763   -21353.401   -310810.06 
     360     708.3328    165880.97    72.679748    72.679749    36.260943          120   -3871.0347   -1446.3521    -66566.38   -789.77993   -1178.1347   -1729.3711    72.679748    62.942509    36.260943   -23961.256   -310812.03 
     370    699.33203    165747.85    72.660301    72.660302    36.251241          120   -2936.1032   -587.73186   -69241.299   -722.85017   -3397.3432   -2121.9708    72.660301    62.925667    36.251241   -24255.045   -310825.88 
     380    697.96584    165616.35    72.641081    72.641082    36.241652          120    -236.3409    2108.7557   -64183.755   -977.34839   -3267.7828   -2676.0084    72.641081    62.909022    36.241652   -20770.447   -310854.56 
     390    694.45974    165487.43    72.622228    72.622228    36.232245          120    2482.7463    4964.8719   -57689.991   -1276.7303   -2587.1645   -2213.5176    72.622228    62.892695    36.232245   -16747.458   -310877.46 
     400     683.7988    165362.21    72.603906    72.603907    36.223104          120    5070.9801    6016.2417   -50417.488   -991.07306   -2206.5226   -2027.1179    72.603906    62.876828    36.223104   -13110.089   -310886.46 
     410    683.33367    165241.62    72.586253    72.586253    36.214297          120    5757.2997    7249.2204   -43479.579   -828.06289   -1345.6972   -2597.5173    72.586253    62.861539    36.214297   -10157.686   -310914.08 
     420    679.79207    165126.25    72.569356    72.569356    36.205867          120    6244.1536    8616.4296   -41073.569    -614.2825   -1928.3087   -1988.9389    72.569356    62.846906    36.205867   -8737.6618   -310935.92 
     430    669.98621    165016.18    72.553227    72.553228     36.19782          120    6748.4447    7695.0367   -43089.116   -661.71619   -1896.2694   -2493.4174    72.553227    62.832939     36.19782   -9548.5448   -310944.72 
     440    661.69133    164910.77    72.537776    72.537776    36.190111          120    5897.6237    5624.9775   -48178.863   -140.46784   -1978.2565   -1231.4625    72.537776    62.819557    36.190111   -12218.754   -310956.57 
     450    655.95436    164808.95    72.522844    72.522845    36.182661          120    5561.6625     5568.429   -53225.771   -140.96108   -1798.9828   -1087.0269    72.522844    62.806626    36.182661   -14031.893    -310972.3 
     460    647.25962    164709.94    72.508318    72.508318    36.175414          120    7025.6355    7656.4275    -54923.19    763.63375   -1488.4011    -1766.064    72.508318    62.794046    36.175414   -13413.709   -310982.09 
     470    638.02677    164613.64    72.494185    72.494185    36.168363          120    8742.9279    9020.4261   -53302.596    1412.8128   -2134.9089   -717.82738    72.494185    62.781806    36.168363   -11846.414   -310989.98 
     480    642.40977    164520.35    72.480488    72.480488    36.161529          120    10778.353    10155.276   -49099.166    782.88824   -1751.0185   -1487.2583    72.480488    62.769944    36.161529   -9388.5121   -311022.91 
     490    634.06682    164430.57      72.4673      72.4673     36.15495          120    10958.373    13174.294   -43371.648    396.45257   -2505.0879   -1766.4466      72.4673    62.758523     36.15495   -6412.9937    -311030.9 
     500    620.78363    164344.88     72.45471    72.454711    36.148668          120    12841.213    14986.826   -38493.255    223.71189   -2192.2266   -2679.1027     72.45471     62.74762    36.148668   -3555.0722   -311028.51 
     510    625.59272     164263.8    72.442793    72.442793    36.142723          120    14404.622    14930.026   -36568.036    691.61855   -2055.2108   -1936.9584    72.442793    62.737299    36.142723   -2411.1294   -311061.64 
     520    620.97063    164187.33     72.43155     72.43155    36.137113          120    13968.154    15009.089   -36787.973    1646.0904   -1009.1787   -1586.5525     72.43155    62.727563    36.137113   -2603.5766   -311075.26 
     530    620.85703    164115.06    72.420921    72.420921     36.13181          120     13838.93    15021.746   -39845.175     2073.253   -84.853909   -1111.2404    72.420921    62.718358     36.13181      -3661.5   -311097.57 
     540    609.81703    164046.36    72.410814    72.410815    36.126768          120     13795.48    15782.398   -44374.197    2061.0213   -802.35991   -377.26854    72.410814    62.709605    36.126768   -4932.1064   -311098.48 
     550    611.11754    163980.58    72.401133    72.401134    36.121938          120    13292.304    16290.893   -45636.649    1598.6188   -772.19398   -1236.9175    72.401133    62.701221    36.121938   -5351.1508   -311123.12 
     560    599.57969    163917.36    72.391829    72.391829    36.117296          120    14874.255    16445.596   -43245.587    251.24043    531.64353   -1280.1243    72.391829    62.693163    36.117296    -3975.245   -311122.06 
     570    595.34404    163856.91    72.382928    72.382929    36.112855          120    16425.729    18393.889    -40877.93    450.55434    311.16444   -1543.4419    72.382928    62.685455    36.112855   -2019.4374   -311134.79 
     580    593.96516    163799.54     72.37448    72.374481     36.10864          120    17244.588    17883.094   -37693.291    836.28868   -601.42131   -1984.2426     72.37448    62.678139     36.10864   -855.20294   -311153.18 
     590    585.20587     163745.4    72.366504    72.366505    36.104661          120     17662.95    17570.769   -35621.431    752.99067    -759.5524    -1382.856    72.366504    62.671232    36.104661   -129.23744   -311156.26 
     600    577.21633    163694.46       72.359    72.359001    36.100917          120    17959.959     18169.99   -34686.074    1755.3077   -670.53953   -710.56431       72.359    62.664733    36.100917    481.29142   -311159.43 
     610    582.32517    163646.67    72.351958    72.351958    36.097404          120    18236.971    18825.154   -34611.376    2045.6168   -218.08666   -876.14265    72.351958    62.658634    36.097404    816.91629      -311188 
     620    578.52031    163601.89    72.345357    72.345357    36.094111          120    18420.809    18501.213   -36212.492    838.57374    206.41834   -950.76153    72.345357    62.652918    36.094111    236.50992   -311199.37 
     630    574.07792    163559.72    72.339141    72.339141    36.091009          120    18506.153    17548.136   -38482.586    97.334848   -10.713744   -1258.5676    72.339141    62.647534    36.091009   -809.43225   -311208.94 
     640    569.39097    163519.71    72.333241    72.333242    36.088066          120    19401.776    17697.922    -39541.13    483.52762   -479.32015   -709.38833    72.333241    62.642425    36.088066   -813.81047   -311218.13 
     650     562.7556    163481.71    72.327638    72.327638     36.08527          120    19810.156    19002.453   -39337.592     1004.274   -608.11498   -701.97517    72.327638    62.637572     36.08527   -174.99445   -311223.16 
     660    561.37358    163445.73    72.322332    72.322333    36.082623          120    18848.169    19710.802   -37659.571    1281.3538   -1124.9193   -1510.5612    72.322332    62.632978    36.082623     299.7998   -311237.29 
     670    558.55022    163411.82    72.317331    72.317331    36.080128          120    19183.136    19896.745   -35199.185    656.94519     -882.182   -1546.7528    72.317331    62.628646    36.080128    1293.5656   -311248.29 
     680    552.78734    163380.11    72.312652    72.312653    36.077794          120    19882.263    20748.273   -34559.872    651.12279   -1223.4373   -966.71951    72.312652    62.624595    36.077794    2023.5543   -311253.84 
     690    551.98234    163350.67    72.308308    72.308308    36.075626          120    19547.184    20346.125   -34120.218    541.57917   -1239.5966   -623.94034    72.308308    62.620832    36.075626    1924.3633   -311268.14 
     700    543.06678    163323.37     72.30428     72.30428    36.073617          120    19880.809    20097.943   -32915.691    816.65309   -758.87427   -1270.3203     72.30428    62.617344    36.073617    2354.3536   -311265.63 
     710    544.77773    163298.16    72.300559     72.30056     36.07176          120    19544.728    20776.233   -34128.278    745.81926    -321.1629   -1790.9455    72.300559    62.614121     36.07176    2064.2279   -311283.46 
     720     540.3135    163274.87    72.297122    72.297123    36.070046          120    19859.721    21090.202   -34664.343    1237.3592   -565.25909   -1384.7733    72.297122    62.611145    36.070046    2095.1931   -311290.25 
     730    534.83679    163253.39    72.293951    72.293952    36.068463          120    20201.004    20783.205   -35258.539    1476.5726    456.92375    -1037.693    72.293951    62.608399    36.068463    1908.5567   -311293.72 
     740    530.73138    163233.55    72.291022    72.291023    36.067002          120    20265.519    20474.551   -34795.745    1475.4829    747.34791   -1752.3613    72.291022    62.605862    36.067002    1981.4418   -311298.62 
     750    531.28251    163215.27    72.288325    72.288325    36.065656          120    20171.566     20939.22   -34677.562     1500.313    955.70649    -871.9929    72.288325    62.603526    36.065656     2144.408   -311313.08 
     760    526.75966    163198.54    72.285854    72.285854    36.064424          120      20857.1    20591.744   -33812.155    1420.4925    1608.0389   -678.86538    72.285854    62.601386    36.064424    2545.5632    -311316.7 
     770    525.66224    163183.35    72.283611    72.283612    36.063305          120     20549.33    20576.544   -32811.532     517.9126    694.90849   -671.89392    72.283611    62.599444    36.063305     2771.447   -311327.59 
     780    522.78868    163169.73    72.281601    72.281601    36.062302          120    22280.155    20304.615   -31650.958   -294.04431   -28.020395   -563.34863    72.281601    62.597703    36.062302    3644.6039   -311333.91 
     790     516.6626    163157.87    72.279849    72.279849    36.061427          120    22771.821    21459.425   -29732.281    762.00132   -627.15122   -1172.7746    72.279849    62.596186    36.061427    4832.9884   -311333.66 
     800    517.46226    163147.97    72.278387    72.278388    36.060698          120    24150.778    21918.738   -31211.144    650.79073   -934.69869   -1763.5523    72.278387     62.59492    36.060698    4952.7909   -311346.19 
     810    521.51915    163140.02    72.277213    72.277214    36.060113          120    23999.279    22542.316   -31755.078    674.50285   -684.91678   -2100.7966    72.277213    62.593903    36.060113    4928.8389    -311364.8 
     820    516.81748    163133.91    72.276311    72.276311    36.059663          120    23527.501    22480.476   -32919.425    515.40008    107.94413    -1819.381    72.276311    62.593122    36.059663    4362.8507   -311366.54 
     830    515.06286    163129.38    72.275641    72.275642    36.059328          120    21897.091    21909.474   -34317.461    197.45062   -388.19041   -2345.6012    72.275641    62.592542    36.059328    3163.0347    -311373.3 
     840    502.75471    163126.07    72.275153    72.275153    36.059085          120    22629.864    23101.066   -33804.938   -161.10307   -153.03711   -899.04385    72.275153    62.592119    36.059085    3975.3307   -311359.85 
     850    508.89723    163124.11    72.274863    72.274864     36.05894          120    23226.652    23848.044   -31788.928    380.33928   -170.54148   -960.41445    72.274863    62.591868     36.05894     5095.256   -311381.35 
     860    500.56958    163123.78    72.274815    72.274816    36.058916          120    22877.998    25010.476   -30033.825    809.46956    714.54331   -1216.2243    72.274815    62.591827    36.058916    5951.5497    -311374.8 
     870     500.1072    163125.28    72.275036    72.275036    36.059026          120    23411.952    24009.157   -29734.636    1353.2446    534.83035   -1720.3706    72.275036    62.592018    36.059026     5895.491   -311382.19 
     880    502.20135    163128.49     72.27551    72.275511    36.059263          120    23003.637    22752.224   -30387.327    1352.7029    -230.2235   -1184.5677     72.27551    62.592428    36.059263    5122.8448   -311394.36 
     890    498.30093    163133.12    72.276195    72.276195    36.059604          120    21755.975    21545.756   -31541.595    894.11367   -12.726148   -880.41822    72.276195    62.593021    36.059604    3920.0453   -311394.91 
     900    496.43052    163138.77    72.277028    72.277028     36.06002          120    21080.161    20644.737   -32921.469    625.99735    506.68513   -777.07076    72.277028    62.593743     36.06002    2934.4762   -311398.48 
     910     494.7369    163145.09    72.277961    72.277962    36.060486          120    21102.117     20874.67   -33680.158     1215.301    1257.5979   -559.38896    72.277961    62.594551    36.060486    2765.5425   -311402.13 
     920    495.89542    163152.01    72.278984    72.278985    36.060996          120    21603.849    21434.484   -32765.905    1395.7636    241.62822   -996.04526    72.278984    62.595437    36.060996    3424.1426   -311410.86 
     930    492.35652    163159.73    72.280124    72.280124    36.061565          120    22742.985    22325.794   -31483.737    1032.7183   -426.33771   -1600.6149    72.280124    62.596424    36.061565    4528.3474   -311409.71 
     940     491.8011    163168.49    72.281418    72.281418     36.06221          120     23234.16    21989.799   -31106.567     1139.563   -726.85776   -827.13076    72.281418    62.597544     36.06221    4705.7974   -311414.22 
     950      493.018    163178.33    72.282871    72.282871    36.062935          120    22423.868    22034.577   -31629.918    1034.4154   -340.01578    63.056961    72.282871    62.598803    36.062935    4276.1756    -311422.3 
     960     489.7575    163189.11    72.284461    72.284462    36.063729          120    22009.841    21991.563   -31768.828    870.84276   -1447.5822    244.93326    72.284461     62.60018    36.063729    4077.5252   -311421.09 
     970    485.59419    163200.71    72.286174    72.286175    36.064584          120     21176.33    22280.056   -31616.098    963.04524   -1281.8581   -286.02746    72.286174    62.601664    36.064584    3946.7626   -311417.16 
     980    487.30839    163213.08    72.288001    72.288002    36.065495          120    20510.593    22409.014   -31879.826    1313.7885   -360.39463   -550.12498    72.288001    62.603246    36.065495    3679.9271    -311423.7 
     990    488.50427    163226.11    72.289924    72.289925    36.066454          120    19765.488    22207.521   -32665.102    1016.2993     706.3798   -171.57289    72.289924    62.604912    36.066454    3102.6357   -311429.54 
    1000    486.14946     163239.6    72.291916    72.291916    36.067448          120    20092.846    21528.072   -33905.199    814.25115    463.78844   -261.47606    72.291916    62.606636    36.067448    2571.9062   -311427.45 
Loop time of 315.679 on 1 procs for 1000 steps with 14848 atoms

Performance: 0.274 ns/day, 87.689 hours/ns, 3.168 timesteps/s
100.0% CPU use with 1 MPI tasks x no OpenMP threads

MPI task timing breakdown:
Section |  min time  |  avg time  |  max time  |%varavg| %total
---------------------------------------------------------------
Pair    | 242.39     | 242.39     | 242.39     |   0.0 | 76.78
Bond    | 0.00029564 | 0.00029564 | 0.00029564 |   0.0 |  0.00
Kspace  | 11.202     | 11.202     | 11.202     |   0.0 |  3.55
Neigh   | 55.082     | 55.082     | 55.082     |   0.0 | 17.45
Comm    | 0.47704    | 0.47704    | 0.47704    |   0.0 |  0.15
Output  | 0.010763   | 0.010763   | 0.010763   |   0.0 |  0.00
Modify  | 6.4035     | 6.4035     | 6.4035     |   0.0 |  2.03
Other   |            | 0.1119     |            |       |  0.04

Nlocal:    14848 ave 14848 max 14848 min
Histogram: 1 0 0 0 0 0 0 0 0 0
Nghost:    46874 ave 46874 max 46874 min
Histogram: 1 0 0 0 0 0 0 0 0 0
Neighs:    1.00824e+07 ave 1.00824e+07 max 1.00824e+07 min
Histogram: 1 0 0 0 0 0 0 0 0 0

Total # of neighbors = 10082402
Ave neighs/atom = 679.041
Ave special neighs/atom = 0
Neighbor list builds = 195
Dangerous builds = 0
PPPM initialization ...
  using 12-bit tables for long-range coulomb (../kspace.cpp:321)
  G vector (1/distance) = 0.202603
  grid = 36 50 24
  stencil order = 5
  estimated absolute RMS force accuracy = 0.000997728
  estimated relative force accuracy = 6.92884e-05
  using double precision FFTs
  3d grid and FFT values/proc = 65395 43200
Setting up Verlet run ...
  Unit style    : metal
  Current step  : 0
  Time step     : 0.001
Per MPI rank memory allocation (min/avg/max) = 151.5 | 151.5 | 151.5 Mbytes
Step Temp Volume Cella Cellb Cellc CellGamma Pxx Pyy Pzz Pxy Pxz Pyz Lx Ly Lz Press PotEng 
       0    486.14946     163239.6    72.291916    72.291916    36.067448          120    20104.229    21539.855    -33899.51    814.50054     464.0924    -261.4863    72.291916    62.606636    36.067448    2581.5249   -311427.29 
      10    485.55364    163253.37    72.293949    72.293949    36.068462          120    20461.634     20966.13   -34934.399    993.18163    385.01928   -673.21768    72.293949    62.608397    36.068462    2164.4552   -311427.83 
      20    486.09059    163267.32    72.296008    72.296008     36.06949          120      20560.7    20722.999   -34386.743     937.3403    826.58134   -1397.9137    72.296008     62.61018     36.06949    2298.9853   -311430.24 
      30    484.96625    163281.46    72.298095    72.298096    36.070531          120    20376.589    21291.541   -33852.827    2024.0457   -201.33755   -555.71856    72.298095    62.611988    36.070531     2605.101   -311428.94 
      40    483.32984     163295.9    72.300226    72.300226    36.071594          120    20572.373    21969.278   -32635.749    1865.1196    47.375401    480.47473    72.300226    62.613833    36.071594    3301.9673    -311426.4 
      50    489.70092    163310.82    72.302427    72.302428    36.072692          120    21946.279    21335.053   -32280.061    1418.4434   -1090.1832    798.23737    72.302427    62.615739    36.072692    3667.0903   -311438.48 
      60    485.18618    163326.31    72.304714    72.304714    36.073833          120    21617.914    21262.119   -31610.265    1561.2417   -1453.8269    429.19959    72.304714    62.617719    36.073833    3756.5893   -311429.05 
      70    488.38437    163342.41    72.307089    72.307089    36.075018          120    23409.402     21065.85   -32110.639    1153.4763   -1078.9919   -561.62866    72.307089    62.619777    36.075018    4121.5378    -311434.2 
      80    490.28511    163359.17    72.309562    72.309562    36.076252          120    22719.681    20836.867   -32656.911    1121.8517   -716.88547    -47.52522    72.309562    62.621918    36.076252    3633.2124   -311435.88 
      90    487.34795    163376.43     72.31211     72.31211    36.077523          120    21762.877    21134.407    -33968.47    1344.4245   -218.30513  -0.27917448     72.31211    62.624125    36.077523     2976.271   -311428.29 
     100    487.67891    163394.03    72.314706    72.314706    36.078818          120    21861.672    21531.184   -33398.478     886.5167   -243.69619    -1322.677    72.314706    62.626373    36.078818    3331.4594   -311426.41 
     110    488.50196    163412.02    72.317359     72.31736    36.080142          120    22773.305    20883.704   -33686.391    496.28402    -347.9504    -1216.596    72.317359    62.628671    36.080142    3323.5394   -311424.87 
     120    489.12216     163430.4     72.32007    72.320071    36.081495          120    22824.633    20921.592   -33821.389    903.77303   -11.963348   -1643.5297     72.32007    62.631019    36.081495    3308.2787    -311423.1 
     130    492.11863    163449.16    72.322839    72.322839    36.082876          120    22606.838    21467.287   -34043.645    1322.2448   -414.36916   -1132.1508    72.322839    62.633416    36.082876    3343.4932   -311424.96 
     140    496.19714     163468.3    72.325661    72.325662    36.084284          120    22070.949    20824.654   -34207.634    1531.0433   -543.05377   -1104.7008    72.325661    62.635861    36.084284    2895.9895   -311429.34 
     150     493.1006    163487.66    72.328517    72.328517    36.085709          120    21059.977    19789.444   -34895.103    1654.2886   -1081.1386   -964.27989    72.328517    62.638333    36.085709    1984.7726   -311419.19 
     160    491.29025    163506.97    72.331364    72.331364    36.087129          120    19370.462    19778.716   -35444.609    880.85601   -1076.3894   -1063.2975    72.331364    62.640799    36.087129    1234.8564   -311411.98 
     170    495.04436    163526.03    72.334173    72.334174    36.088531          120     20138.15    19098.376   -35284.793    980.43314   -1041.7826   -956.32014    72.334173    62.643232    36.088531    1317.2443   -311414.72 
     180    498.68921    163544.83    72.336945    72.336946    36.089914          120    20643.447    18806.778   -36303.015    407.86074   -1477.4442   -1549.9499    72.336945    62.645633    36.089914    1049.0697   -311416.86 
     190    499.47849    163563.32    72.339672    72.339672    36.091274          120    19191.399    19697.124   -36097.485   -303.60425   -360.98942   -1862.4448    72.339672    62.647994    36.091274    930.34586   -311414.16 
     200    501.57451    163581.47    72.342347    72.342348    36.092609          120    19383.105    19050.875   -36104.294    602.88138    -162.3451   -1822.0069    72.342347    62.650311    36.092609    776.56203   -311413.59 
     210    500.30723    163599.26    72.344969     72.34497    36.093917          120    19316.442    18647.449   -36525.121    479.49213   -177.88164   -1866.0688    72.344969    62.652582    36.093917    479.58988   -311406.55 
     220    502.16145    163616.63     72.34753    72.347531    36.095195          120    20531.585     18752.24   -36134.253    638.63871    3.6304349   -977.08811     72.34753      62.6548    36.095195    1049.8575   -311405.18 
     230    498.38987    163633.74    72.350052    72.350052    36.096453          120    21318.445     18692.36   -35210.805    119.27831   -237.37119   -1628.0012    72.350052    62.656984    36.096453    1599.9999   -311393.67 
     240    507.39875    163650.77    72.352562    72.352563    36.097705          120    21319.055     19283.73   -35066.965    626.97484   -1040.1447   -1304.6966    72.352562    62.659157    36.097705    1845.2735      -311407 
     250    506.95426    163667.81    72.355073    72.355073    36.098958          120    21139.784    19708.462   -34727.213    420.19141   -248.06766   -1334.5466    72.355073    62.661332    36.098958    2040.3444   -311402.17 
     260    505.28654     163684.9     72.35759    72.357591    36.100214          120    20827.187    19422.236    -34420.91    174.00874   -188.86011   -113.96735     72.35759    62.663512    36.100214    1942.8377    -311395.1 
     270    511.20586    163702.03    72.360116    72.360116    36.101474          120    21034.675    18721.063   -35113.374    438.58202   -587.99995   -264.44776    72.360116    62.665699    36.101474    1547.4547   -311403.13 
     280    508.98993    163719.08    72.362627    72.362628    36.102727          120    19506.811    18490.646   -36025.067    1144.3523   -339.13983   -566.95097    72.362627    62.667874    36.102727    657.46367   -311396.33 
     290    507.06239     163735.8     72.36509    72.365091    36.103956          120    19456.158     18439.17   -36049.101    1239.1629   -649.95475   -1136.6097     72.36509    62.670007    36.103956    615.40879   -311389.53 
     300    510.45019    163752.16      72.3675      72.3675    36.105158          120    19628.204    18239.061   -36315.944    1663.2502    452.40853    -451.8179      72.3675    62.672094    36.105158    517.10715   -311393.28 
     310    508.27996    163768.17    72.369859    72.369859    36.106335          120    19437.563    19451.102   -36119.131    1778.9635    713.39129   -601.12703    72.369859    62.674137    36.106335    923.17788   -311387.38 
     320    511.55588    163783.96    72.372185    72.372185    36.107495          120    19323.698    19494.756   -35081.072    1517.3076   -146.28987    -840.5744    72.372185    62.676151    36.107495    1245.7936   -311391.96 
     330    510.37468    163799.63    72.374492    72.374493    36.108647          120    18668.164    19432.139   -34793.984    1492.8577    -766.6739    -677.2472    72.374492     62.67815    36.108647    1102.1062   -311388.13 
     340    506.99317    163815.16     72.37678     72.37678    36.109788          120    19872.665    19930.705   -34961.125    454.35944   -381.36073   -629.28734     72.37678    62.680131    36.109788    1614.0813   -311380.86 
     350    510.08532    163830.67    72.379064    72.379064    36.110927          120    20079.038    19328.577   -34693.046    671.80447   -305.53645    -1140.383    72.379064    62.682109    36.110927    1571.5233   -311386.14 
     360    513.64916    163846.15    72.381344    72.381344    36.112065          120    18892.546    18242.134   -35427.109    1001.7165    437.66307   -2181.7872    72.381344    62.684083    36.112065    569.19045   -311392.65 
     370    517.10351     163861.3    72.383575    72.383576    36.113178          120     17507.13    17801.854    -37243.08     1648.739     1135.885     -1853.13    72.383575    62.686015    36.113178   -644.69878   -311399.49 
     380    510.75657    163875.81    72.385711    72.385711    36.114244          120      17782.5    17842.088   -38343.693    1298.8882   -668.16371   -1200.1986    72.385711    62.687865    36.114244   -906.36832   -311388.33 
     390    510.27021    163889.59    72.387739     72.38774    36.115256          120    18460.374     16642.07    -37853.77    1004.6644   -436.61368    -330.8739    72.387739    62.689622    36.115256    -917.1087   -311389.15 
     400    509.52024    163902.65    72.389663    72.389664    36.116216          120     19419.64    14816.157    -37263.67    1230.3803   -255.33454   -164.13125    72.389663    62.691288    36.116216   -1009.2909   -311389.99 
     410    512.04387    163915.01    72.391482    72.391482    36.117123          120     19210.55    14986.421    -37951.44    1184.1003   -379.77891   -403.11362    72.391482    62.692863    36.117123     -1251.49   -311397.25 
     420    510.24754     163926.6    72.393188    72.393188    36.117974          120    18535.849    15284.027   -39108.831    866.32971   -654.16244    -1561.012    72.393188     62.69434    36.117974   -1762.9849   -311396.23 
     430    509.69775    163937.28     72.39476    72.394761    36.118758          120    16864.385    15758.681   -39236.476    984.16379   -770.39382   -1303.0772     72.39476    62.695702    36.118758   -2204.4698   -311398.15 
     440    504.31636    163947.02    72.396195    72.396195    36.119474          120    17933.575    17627.322   -37612.088    985.75015   -588.49433   -730.52594    72.396195    62.696945    36.119474   -683.73023   -311390.53 
     450    506.08172    163956.23    72.397551    72.397551    36.120151          120     19054.42    17351.793   -36793.025    1354.9567    -668.7156   -621.50621    72.397551    62.698119    36.120151   -128.93729   -311397.81 
     460    507.50535    163965.12    72.398859     72.39886    36.120803          120    19526.599      16440.3   -35727.493    1862.4642   -438.40218   -406.11827    72.398859    62.699252    36.120803    79.802131   -311404.59 
     470    505.09311    163973.74    72.400127    72.400128    36.121436          120    19971.829    16181.888   -36877.329     1410.715   -67.856262   -439.62603    72.400127     62.70035    36.121436   -241.20384   -311404.15 
     480    500.74543    163982.04    72.401348    72.401349    36.122045          120    19857.324    17168.404   -36992.623    282.27673    929.80256   -1085.4085    72.401348    62.701407    36.122045    11.034898      -311400 
     490    503.79139    163990.04    72.402527    72.402527    36.122633          120    18027.785     17491.96   -38145.028   -154.49083    1027.7713   -1223.8294    72.402527    62.702428    36.122633     -875.094   -311409.74 
     500    505.46518    163997.58    72.403635    72.403636    36.123186          120    17452.514    16994.065   -37454.354    -623.8292    1054.3691   -1363.8642    72.403635    62.703388    36.123186   -1002.5919   -311417.43 
     510    496.29851    164004.62    72.404671    72.404672    36.123703          120    18232.381     17813.66   -35748.039     69.36601     255.8477   -325.99726    72.404671    62.704285    36.123703    99.334425   -311403.68 
     520    502.85084    164011.41    72.405671    72.405672    36.124202          120     18957.87    16643.653       -36661     451.1303   -220.40191   -385.16093    72.405671    62.705151    36.124202   -353.15908   -311420.61 
     530    500.90638    164017.91    72.406627    72.406628    36.124679          120    18900.465     16265.15   -37606.562    1559.6144    14.091581   -611.11053    72.406627    62.705979    36.124679    -813.6488   -311421.41 
     540    497.23131    164023.95    72.407517    72.407517    36.125123          120      17970.1    15562.218   -38108.725    923.43762   -653.28309   -986.11973    72.407517     62.70675    36.125123   -1525.4689   -311418.33 
     550    499.45027    164029.38    72.408315    72.408316    36.125521          120    17693.795    16245.495    -37963.98    1253.0042   -159.14932   -1094.4878    72.408315    62.707441    36.125521    -1341.563    -311426.3 
     560    500.37212    164034.21    72.409026    72.409026    36.125876          120    17314.405    16116.747   -37756.909    1052.6801   -555.76032   -389.18982    72.409026    62.708056    36.125876   -1441.9191   -311432.14 
     570    493.26473    164038.44    72.409648    72.409648    36.126186          120    17793.876    15852.907   -38556.482    713.71588   -851.18464   -347.45462    72.409648    62.708595    36.126186   -1636.5664   -311422.27 
     580    499.78886    164042.04    72.410178    72.410178    36.126451          120    18195.898    16407.871   -38733.703    2010.2223    315.52606   -430.96643    72.410178    62.709054    36.126451   -1376.6447   -311438.68 
     590    499.79553    164045.17    72.410638    72.410638     36.12668          120    19136.991    17433.404   -36601.588    2108.5501    376.04856   -9.1284624    72.410638    62.709453     36.12668   -10.397668   -311442.52 
     600    494.64215    164048.16    72.411079    72.411079      36.1269          120    18955.684    18096.465   -37449.561       2317.6   -912.20299    39.737339    72.411079    62.709834      36.1269   -132.47103   -311436.06 
     610     490.4983    164051.04    72.411502    72.411503    36.127111          120    19195.375    17383.331   -37222.297    1756.4735    -459.0166    426.03859    72.411502    62.710201    36.127111   -214.53024   -311431.03 
     620     490.9764    164053.73    72.411898    72.411899    36.127309          120    18540.735     16836.48   -38497.503    2131.6542    -922.9038    -714.2797    72.411898    62.710544    36.127309    -1040.096   -311434.46 
     630    486.68095    164056.03    72.412236    72.412237    36.127478          120    17329.984    16483.217   -39081.638    1340.4708   -1039.4205   -1132.4583    72.412236    62.710837    36.127478   -1756.1458   -311428.96 
     640    490.75191    164057.74    72.412488    72.412489    36.127603          120    17264.007    17119.773   -39385.607    655.92933   -434.44016   -702.30433    72.412488    62.711055    36.127603   -1667.2755   -311438.83 
     650    492.71281     164058.9    72.412659    72.412659    36.127688          120     18308.09     17002.83   -38761.888    730.39279   -742.58202   -1012.5075    72.412659    62.711203    36.127688   -1150.3226   -311444.26 
     660    492.73877    164059.65    72.412769     72.41277    36.127743          120    18799.764    16930.794   -38935.178    1381.2666   -710.58558   -887.19242    72.412769    62.711298    36.127743   -1068.2066   -311445.78 
     670    488.54157    164060.01    72.412823    72.412823     36.12777          120    18361.173    16455.615   -39963.174    1651.8529   -395.13725   -879.02751    72.412823    62.711345     36.12777   -1715.4619   -311439.03 
     680    486.11528    164059.88    72.412803    72.412803     36.12776          120    18247.943    16708.799   -38366.927    1158.3478   -240.97898   -1194.4258    72.412803    62.711328     36.12776   -1136.7284   -311435.43 
     690    492.85614    164059.36    72.412726    72.412727    36.127722          120    17282.677    17066.929   -39125.278    1337.1811    351.12506   -433.09498    72.412726    62.711261    36.127722   -1591.8905   -311449.06 
     700    489.48929    164058.39    72.412583    72.412584    36.127651          120    16715.913    16852.338   -38302.643    837.15109    646.02936   -639.54976    72.412583    62.711137    36.127651   -1578.1306   -311442.31 
     710    491.51255    164056.93    72.412369     72.41237    36.127544          120    16456.064    16943.128   -39187.184    1166.3946   -237.34767   -1081.2803    72.412369    62.710952    36.127544   -1929.3307   -311445.31 
     720    492.50733    164054.92    72.412073    72.412073    36.127396          120    16824.111    17154.096   -40461.454    1042.5168    87.394288   -1324.4994    72.412073    62.710695    36.127396   -2161.0822   -311446.29 
     730    492.38664    164052.29    72.411686    72.411687    36.127203          120    16706.901    16145.898   -39507.724    793.64841    -146.3832   -1160.4837    72.411686     62.71036    36.127203   -2218.3084    -311445.1 
     740     493.9683    164049.05    72.411209    72.411209    36.126965          120    16614.414     16100.46   -39411.975       1307.7     257.0342   -1918.1304    72.411209    62.709947    36.126965    -2232.367   -311446.05 
     750    492.81527     164045.2    72.410642    72.410643    36.126682          120    16632.156     16101.47   -39304.823    1258.7029     1379.874   -1635.4126    72.410642    62.709456    36.126682   -2190.3992    -311442.5 
     760    494.17246     164040.8    72.409995    72.409996     36.12636          120    17620.596    16767.049   -37810.853    867.57913    438.36305    -1601.912    72.409995    62.708896     36.12636   -1141.0691   -311443.01 
     770    494.82162    164036.18    72.409315    72.409316     36.12602          120    18446.665    18132.793   -36649.241    577.83724    58.659263   -1700.9105    72.409315    62.708307     36.12602   -23.261023   -311442.28 
     780    489.41145    164031.63    72.408647    72.408647    36.125687          120     18424.48    17224.674   -36974.971    730.46436   -123.68125   -1178.8847    72.408647    62.707728    36.125687   -441.93901   -311429.61 
     790    493.11292    164027.08    72.407977    72.407977    36.125352          120    18339.758    16510.422   -36763.578    876.12391    699.50446   -773.73305    72.407977    62.707148    36.125352   -637.79915   -311434.29 
     800    493.56038    164022.42    72.407291    72.407292     36.12501          120    17836.786    16488.146   -38442.578    722.08402    985.52418   -522.94171    72.407291    62.706554     36.12501   -1372.5486   -311431.97 
     810    499.18033    164017.47    72.406563    72.406563    36.124647          120    18251.546    15691.295   -39079.791    819.87143   -602.96122   -664.30068    72.406563    62.705923    36.124647   -1712.3166   -311439.21 
     820     498.7719    164012.13    72.405777    72.405778    36.124255          120    18164.302    15794.015   -38625.481    391.23361   -506.31926   -1604.6936    72.405777    62.705243    36.124255   -1555.7216   -311435.88 
     830    496.07192    164006.47    72.404944    72.404945    36.123839          120    17742.943    17166.941   -37193.872    102.38469    14.978437   -2321.7783    72.404944    62.704522    36.123839    -761.3293   -311427.44 
     840    500.42007     164000.7    72.404094    72.404095    36.123415          120    18609.219    16760.163   -37675.854    909.46962   -450.11255   -1955.0774    72.404094    62.703786    36.123415   -768.82424   -311432.36 
     850    502.46875    163994.83    72.403232    72.403232    36.122985          120    17878.157    17215.563   -37529.771    1051.2729   -975.27974   -907.51738    72.403232    62.703039    36.122985   -812.01724   -311433.22 
     860    501.54472    163988.89    72.402357    72.402357    36.122549          120    18994.888    18382.834   -38432.693    262.94868    -894.8587   -406.91039    72.402357    62.702281    36.122549   -351.65675    -311428.2 
     870    502.36862    163982.96    72.401484    72.401485    36.122113          120    19099.671    17918.791   -39093.745    760.03996   -668.03343   -1198.3245    72.401484    62.701525    36.122113   -691.76124    -311426.1 
     880    503.81754    163976.97    72.400603    72.400603    36.121674          120    18561.892    17523.799   -38997.316    888.84794    282.85908   -1570.2558    72.400603    62.700762    36.121674   -970.54139   -311426.19 
     890    503.61897    163970.85    72.399702    72.399702    36.121224          120    18164.971    17884.541    -39088.07    835.30972    1708.3235    -1314.588    72.399702    62.699981    36.121224   -1012.8529   -311423.08 
     900    504.20287    163964.57    72.398777    72.398778    36.120763          120    18303.591    17009.963   -38298.096    924.75116    2030.4714    443.61631    72.398777    62.699181    36.120763   -994.84741   -311421.23 
     910    502.86599    163958.12    72.397828    72.397828    36.120289          120    17836.121    17283.909   -38778.966    1036.0785    1555.0422    1053.6022    72.397828    62.698358    36.120289   -1219.6454   -311415.71 
     920    505.15838    163951.48    72.396851    72.396852    36.119802          120    17602.431    18210.532   -38380.916    422.46623   -1.3424657   -31.179183    72.396851    62.697513    36.119802   -855.98409   -311418.29 
     930    508.58907    163944.75     72.39586     72.39586    36.119307          120    18450.568    18696.804   -37768.986    1067.4497   -1260.8856   -196.51254     72.39586    62.696654    36.119307    -207.2047   -311422.87 
     940    504.95785    163938.15    72.394889     72.39489    36.118823          120    20132.656    18785.371   -34443.113    975.74034    -112.8844    285.75345    72.394889    62.695814    36.118823    1491.6378      -311414 
     950    508.65581    163932.13    72.394003    72.394003    36.118381          120     19769.11    19621.322   -35085.173    1180.9804   -636.36103    233.62488    72.394003    62.695046    36.118381    1435.0864   -311419.39 
     960     510.2659     163926.7    72.393203    72.393203    36.117981          120    19888.111    19814.912    -36583.78    1368.3461   -975.29061   -569.07194    72.393203    62.694353    36.117981    1039.7474   -311420.72 
     970    508.22168     163921.7    72.392468    72.392468    36.117615          120    19244.492    19633.592   -36902.092    1741.0049   -502.19253   -1554.4183    72.392468    62.693717    36.117615    658.66401   -311416.05 
     980    506.12168    163917.04    72.391781    72.391782    36.117272          120    18453.463    19406.183   -35990.934     1131.051   -254.46089   -1077.4818    72.391781    62.693122    36.117272    622.90397   -311411.49 
     990    511.42801    163912.69    72.391141    72.391141    36.116953          120    19467.574    19591.002   -36019.127   -30.389258    75.087424   -1031.4608    72.391141    62.692568    36.116953    1013.1495   -311421.07 
    1000    505.66509    163908.75    72.390561    72.390562    36.116664          120    19754.858     19788.96   -36290.194     1103.935    706.18951   -323.75022    72.390561    62.692066    36.116664    1084.5417    -311410.6 
    1010    509.99769    163905.25    72.390045    72.390045    36.116406          120    19553.745    19323.164   -36150.333    1768.6123    781.36718    -595.0636    72.390045    62.691618    36.116406    908.85886   -311419.42 
    1020    509.54561    163902.09    72.389581    72.389581    36.116174          120    18534.366    18778.218   -36265.709    1229.7417     105.0503    -1106.969    72.389581    62.691216    36.116174    348.95823   -311419.45 
    1030    506.84397    163899.15    72.389147    72.389148    36.115958          120    19719.173    18591.492   -36274.554    1086.7907   -614.48403   -1521.6292    72.389147    62.690841    36.115958    678.70374    -311415.2 
    1040    504.91739    163896.51    72.388758    72.388759    36.115764          120    20980.347    19253.554   -35128.095    958.65816   -780.70789   -1257.4676    72.388758    62.690504    36.115764    1701.9356   -311412.63 
    1050     508.1345    163894.45    72.388455    72.388456    36.115613          120    20645.691    18977.163   -33736.124     522.8971   -999.46097    -364.9703    72.388455    62.690242    36.115613    1962.2433   -311420.27 
    1060    505.39794    163893.03    72.388247    72.388248    36.115509          120    20670.357    18555.302   -34438.776    752.76333   -1316.0546   -404.73671    72.388247    62.690062    36.115509    1595.6279   -311417.34 
    1070    505.61892    163892.16    72.388118    72.388119    36.115445          120    20698.345    18222.692   -35078.641    936.57596    -1760.946   -866.14088    72.388118     62.68995    36.115445    1280.7987   -311419.49 
    1080    509.49393    163891.68    72.388048    72.388048     36.11541          120    19648.544    18394.552   -36450.234   -74.026048   -2105.5624   -990.38019    72.388048    62.689889     36.11541    530.95385   -311429.69 
    1090    506.64942    163891.42    72.388009     72.38801     36.11539          120    19120.375    18962.907   -35757.801    598.74864   -1559.0263   -944.91873    72.388009    62.689856     36.11539    775.16042   -311426.62 
    1100    505.77965    163891.42    72.388009     72.38801     36.11539          120    19732.427    19405.801   -35590.362    515.08949   -1390.7309   -329.48637    72.388009    62.689855     36.11539    1182.6222   -311427.87 
    1110    502.02462    163891.78    72.388062    72.388063    36.115417          120    19897.465    20343.118   -35929.265     1025.134    251.04139   -802.52581    72.388062    62.689901    36.115417    1437.1063   -311423.35 
    1120    506.32973    163892.54    72.388174    72.388175    36.115473          120    19374.692    19062.666   -35729.005    722.46552    683.89851   -770.52175    72.388174    62.689999    36.115473    902.78408   -311435.25 
    1130    504.79478    163893.58    72.388328    72.388328    36.115549          120    18665.175     18691.53   -36203.282    553.40079   -121.11323   -1586.9772    72.388328    62.690131    36.115549    384.47442   -311436.01 
    1140    500.72255    163894.73    72.388496    72.388497    36.115633          120    19170.736     18891.14   -38017.755    639.82949    91.569613   -1933.3597    72.388496    62.690277    36.115633    14.707039   -311431.23 
    1150    496.42621    163895.86    72.388662    72.388663    36.115716          120     20201.95    18589.454   -37913.789    1508.2522   -567.14681   -1454.8531    72.388662    62.690421    36.115716    292.53836   -311426.81 
    1160    498.00578    163897.05    72.388839    72.388839    36.115804          120    20446.808    18260.096   -36672.916    1145.2212   -980.96808   -1245.2047    72.388839    62.690574    36.115804    677.99579   -311432.99 
    1170    497.35381    163898.41    72.389039    72.389039    36.115904          120    20640.375     17891.92     -36775.6     822.8629   -1339.8848   -688.21334    72.389039    62.690747    36.115904      585.565   -311434.92 
    1180    502.86187    163899.92    72.389261    72.389262    36.116015          120    20638.145    18361.055   -36807.402    655.43204    -1445.402   -857.61635    72.389261     62.69094    36.116015    730.59955   -311448.64 
    1190    494.42794    163901.63    72.389513    72.389513    36.116141          120    20387.109    17927.066   -35537.226    28.531042   -1553.4894   -140.16949    72.389513    62.691158    36.116141     925.6496   -311435.77 
    1200    499.95653    163903.55    72.389795    72.389796    36.116281          120    19845.071    17911.585   -36653.074    793.44141   -700.86579   -605.86107    72.389795    62.691402    36.116281    367.86065   -311449.23 
    1210    497.92536    163905.58    72.390095    72.390095    36.116431          120    20287.321    18744.656    -35867.97    1555.0701    86.167265   -1151.0067    72.390095    62.691662    36.116431    1054.6692   -311448.41 
    1220    498.41559    163907.88    72.390433    72.390433    36.116599          120    20566.566    19294.747   -36486.059    1646.1448     505.6868   -1249.4764    72.390433    62.691954    36.116599    1125.0848   -311451.99 
    1230    496.30961    163910.48    72.390815    72.390816     36.11679          120    20394.449    18937.732   -36328.597    1301.2829    313.53445   -1531.0026    72.390815    62.692286     36.11679    1001.1948   -311450.47 
    1240    492.16609    163913.32    72.391233    72.391234    36.116999          120    20013.443    17712.818    -36482.09    490.90312    321.68594    -1702.629    72.391233    62.692648    36.116999    414.72374   -311444.61 
    1250    496.39157    163916.23    72.391662    72.391663    36.117213          120     20645.88    17261.678    -37807.86    748.98135   -220.16588   -1274.3068    72.391662    62.693019    36.117213    33.232541   -311454.64 
    1260    491.22898    163919.13    72.392089     72.39209    36.117426          120    20226.607    19215.634   -37283.122    1581.6748   -988.21026   -1157.0349    72.392089    62.693389    36.117426    719.70613   -311446.75 
    1270    490.79892    163922.15    72.392533    72.392533    36.117647          120    19390.803    18542.593   -36868.592    1775.3834   -1155.3395   -906.51767    72.392533    62.693773    36.117647    354.93473   -311447.89 
    1280    495.45561     163925.2    72.392983    72.392983    36.117872          120    19526.629    17244.917   -36469.647     1705.545   -498.91503   -1023.5285    72.392983    62.694163    36.117872    100.63265   -311458.16 
    1290    492.30765    163928.23    72.393428    72.393429    36.118094          120    19480.691    17929.518   -36471.513    1431.3716   -1190.7313   -281.61815    72.393428    62.694549    36.118094    312.89872   -311454.23 
    1300    494.46003    163931.31    72.393881    72.393882     36.11832          120    20910.842    17913.084   -36329.163    1293.8435   -1477.0804   -150.26618    72.393881    62.694941     36.11832    831.58784   -311459.06 
    1310    495.71089    163934.55    72.394359     72.39436    36.118558          120    19590.455    17956.537   -36457.659    1496.0196   -1078.5366    296.42294    72.394359    62.695355    36.118558     363.1111   -311462.13 
    1320    489.71867    163937.83    72.394842    72.394843    36.118799          120    17840.942    18760.403   -37140.028    1294.3048   -190.64607   -456.42218    72.394842    62.695773    36.118799   -179.56109   -311450.87 
    1330    491.43049    163940.99    72.395306    72.395307    36.119031          120    17946.841    18721.663   -37257.297    1217.9765    92.551081   -1119.5473    72.395306    62.696175    36.119031   -196.26452   -311454.31 
    1340    493.79593    163943.99    72.395749     72.39575    36.119252          120    18718.182    18626.796   -37868.953    1619.3069    -1139.168   -1257.4664    72.395749    62.696558    36.119252   -174.65833    -311458.8 
    1350    492.08904    163946.87    72.396172    72.396173    36.119463          120    18005.455     17742.51   -36818.291    1496.2137   -1638.9872   -1521.1173    72.396172    62.696925    36.119463   -356.77543   -311455.35 
    1360    491.36863    163949.61    72.396575    72.396576    36.119664          120    18420.424    18788.183   -35877.644    1319.8842   -762.00077    -1218.122    72.396575    62.697274    36.119664    443.65459   -311452.73 
    1370    498.38069    163952.42     72.39699     72.39699    36.119871          120    19380.833    18963.403   -35039.252     434.7272   -875.55916   -1624.6524     72.39699    62.697633    36.119871    1101.6612   -311465.08 
    1380     494.3825     163955.5    72.397443    72.397443    36.120097          120    18688.919    18946.141   -35166.829    205.74377   -1307.1763   -1648.3061    72.397443    62.698025    36.120097    822.74332   -311456.17 
    1390    489.71143    163958.77    72.397924    72.397924    36.120337          120    17960.677    19334.024   -36362.393    742.23693   -711.31818    -1570.701    72.397924    62.698442    36.120337    310.76938   -311446.17 
    1400    498.19173    163962.08     72.39841    72.398411     36.12058          120    18752.124    18994.684   -36389.799    1667.7805   -168.40522   -775.68707     72.39841    62.698863     36.12058    452.33616   -311460.82 
    1410    494.84063    163965.45    72.398908    72.398908    36.120828          120    20148.546    18760.515   -36252.302    1592.0627    318.06422   -812.91749    72.398908    62.699294    36.120828     885.5862   -311452.16 
    1420    498.29236    163969.04    72.399436    72.399436    36.121091          120    20517.218    18244.383   -34277.578     1556.477   -609.23996   -1680.9083    72.399436    62.699751    36.121091    1494.6742   -311456.77 
    1430    495.97729    163972.98    72.400015    72.400016     36.12138          120    20343.073    18087.944   -34519.999    1634.6797   -159.29974   -813.14214    72.400015    62.700253     36.12138    1303.6726   -311450.49 
    1440    498.46763    163977.21    72.400638    72.400639    36.121691          120     19355.96    17791.278   -35860.473    1982.3706   -14.784402    -262.6432    72.400638    62.700792    36.121691    428.92141   -311452.69 
    1450    494.05436     163981.5    72.401269    72.401269    36.122006          120    18592.591    18735.914   -37103.721     1409.769   -180.40018    -617.1009    72.401269    62.701339    36.122006    74.927915    -311441.6 
    1460     496.6695    163985.72    72.401891    72.401891    36.122316          120    18822.628    18582.451   -36126.589    1427.8644    -90.14099   -879.34781    72.401891    62.701877    36.122316    426.16347   -311443.99 
    1470    498.46522    163989.98    72.402518    72.402518    36.122629          120    19796.069    18192.866   -35174.359    2116.4756   -792.67703   -906.26168    72.402518     62.70242    36.122629    938.19235   -311445.75 
    1480    496.37555    163994.44    72.403174    72.403175    36.122956          120    21331.944    18509.342   -35973.635    1631.6729   -1018.2958   -697.86296    72.403174    62.702989    36.122956     1289.217   -311439.28 
    1490    504.71912    163999.19    72.403872    72.403873    36.123305          120    20360.877    18757.436   -37254.972    1242.4177   -573.15238   -385.90898    72.403872    62.703593    36.123305    621.11359    -311453.1 
    1500    506.15944    164004.02    72.404584    72.404584     36.12366          120    18674.444    18387.214   -37006.015    928.16876   -410.69609    -420.3542    72.404584     62.70421     36.12366    18.547554   -311453.77 
    1510    501.36174    164008.79    72.405285    72.405286     36.12401          120    18235.901    19176.638   -36770.989    505.51196   -703.63179   -605.97014    72.405285    62.704817     36.12401     213.8502      -311442 
    1520    501.87044    164013.47    72.405974    72.405975    36.124353          120    17835.157    18169.191   -37998.485    788.63665    50.934692   -279.02116    72.405974    62.705414    36.124353   -664.71245   -311440.43 
    1530    503.34116    164017.86     72.40662    72.406621    36.124676          120    17849.721    17593.816    -37374.66    1499.2331    256.80167   -380.22694     72.40662    62.705973    36.124676   -643.70773   -311440.51 
    1540     504.2623    164021.95    72.407222    72.407223    36.124976          120    18308.755     16731.54   -36635.589    809.92325   -1.3084676   -389.75509    72.407222    62.706494    36.124976    -531.7644   -311440.62 
    1550    503.67458    164025.77    72.407784    72.407785    36.125256          120    18143.686    15845.728   -36859.561    902.87791    40.972252    -150.3313    72.407784    62.706981    36.125256   -956.71561   -311438.01 
    1560    500.62751    164029.25    72.408295    72.408296    36.125511          120    19363.684    16859.543   -37345.161    628.82047   -546.93396   -1467.0607    72.408295    62.707424    36.125511   -373.97773   -311430.56 
    1570    507.25098    164032.52    72.408777    72.408778    36.125752          120    19244.173    17710.053   -37696.024    751.31087    671.12483   -459.89472    72.408777    62.707841    36.125752   -247.26606   -311441.39 
    1580    504.70679    164035.61    72.409232    72.409233    36.125979          120    17936.568    17167.922   -38761.682    413.23276  -0.89058554   -407.13598    72.409232    62.708235    36.125979    -1219.064   -311434.24 
    1590    504.67481    164038.27    72.409624    72.409624    36.126174          120    17092.507    16768.956   -38639.005    313.35445   -456.99901   -837.85897    72.409624    62.708574    36.126174   -1592.5138   -311433.42 
    1600    506.20877    164040.42     72.40994     72.40994    36.126332          120    18809.035    17748.708   -39220.103    764.27453    61.664241   -782.48608     72.40994    62.708848    36.126332   -887.45318   -311435.87 
    1610    512.12881    164042.22    72.410204    72.410205    36.126464          120    18244.898    18121.339   -38695.183    1415.9493   -246.78985   -346.33104    72.410204    62.709077    36.126464   -776.31547   -311445.97 
    1620    499.35479    164043.75     72.41043     72.41043    36.126576          120    17852.864    18447.752   -37044.092    2051.5615   -609.88499   -292.14594     72.41043    62.709272    36.126576   -247.82535   -311421.28 
    1630    509.15711    164045.16    72.410636    72.410637    36.126679          120    17403.666    19405.153   -36476.672    1807.5822   -1228.3822    -706.1473    72.410636    62.709451    36.126679    110.71584   -311440.29 
    1640    508.24679    164046.56    72.410843    72.410843    36.126782          120    17784.014    18609.667   -36179.998    1361.4223   -344.52711   -928.15221    72.410843     62.70963    36.126782    71.227596   -311439.21 
    1650    506.29658    164047.96    72.411049     72.41105    36.126885          120    17497.294    18380.061   -36337.416    1054.3875   0.24189929   -1306.6644    72.411049    62.709809    36.126885   -153.35337   -311436.07 
    1660    505.64988    164049.29    72.411245    72.411246    36.126983          120    17119.079     18541.88   -36512.075     1810.413   -954.27447   -1934.2938    72.411245    62.709979    36.126983   -283.70534   -311435.08 
    1670     507.1472    164050.51    72.411425    72.411425    36.127073          120    17470.096    19278.314   -37650.258    1122.8281   -1272.4893   -553.37494    72.411425    62.710134    36.127073   -300.61617   -311438.88 
    1680    505.01772     164051.6    72.411585    72.411586    36.127153          120    17885.816    18426.452   -38136.486    1114.4576    -665.1223     376.4467    72.411585    62.710273    36.127153    -608.0726   -311436.04 
    1690    504.10967    164052.47    72.411712    72.411713    36.127216          120    17670.563    15970.714   -37693.882    1570.9837   -580.53365   -677.61861    72.411712    62.710383    36.127216   -1350.8682   -311436.03 
    1700    500.82648    164052.92    72.411779    72.411779    36.127249          120    18457.442    16838.812    -37957.15    817.26499   -853.41855   -803.24204    72.411779    62.710441    36.127249   -886.96561   -311430.82 
    1710    505.49631     164053.1    72.411805    72.411806    36.127263          120    19825.153    18429.102   -37278.066    133.14151   -774.31866   -627.75246    72.411805    62.710464    36.127263    325.39655   -311441.64 
    1720     504.1475    164053.41    72.411851    72.411851    36.127285          120    20069.316    20444.859   -35002.449    198.90836   -927.69029   -720.90123    72.411851    62.710503    36.127285    1837.2417   -311440.63 
    1730    507.95937    164054.22     72.41197     72.41197    36.127344          120     18910.83    20654.497   -35250.357    733.99705   -952.13887   -1066.4181     72.41197    62.710606    36.127344    1438.3232   -311450.16 
    1740    505.01514    164055.48    72.412156    72.412156    36.127437          120    19537.424    20681.922   -36431.567     1266.176    329.40566   -1801.9849    72.412156    62.710767    36.127437    1262.5927   -311446.36 
    1750    500.94481     164057.1    72.412394    72.412395    36.127556          120    19752.808    20030.951   -38134.209    852.46517    710.83201   -1342.4245    72.412394    62.710974    36.127556    549.85006   -311440.44 
    1760    498.29008    164058.84     72.41265     72.41265    36.127684          120    18220.459    18221.181   -38077.346    903.36894    34.749726   -1032.9785     72.41265    62.711195    36.127684   -545.23532   -311437.96 
    1770    497.50986    164060.39    72.412879    72.412879    36.127798          120    18231.764    17946.027   -37080.477    421.01858   -467.81946   -896.25265    72.412879    62.711393    36.127798   -300.89518   -311438.99 
    1780    498.64632    164061.83     72.41309     72.41309    36.127903          120     19507.34    18090.518   -36581.079    786.93302   -288.78625   -310.84596     72.41309    62.711576    36.127903    338.92658   -311443.97 
    1790    500.57424    164063.31    72.413307    72.413308    36.128012          120    19008.972    17865.456   -37176.711    1422.3357   -243.36829   -1145.1178    72.413307    62.711764    36.128012   -100.76092   -311449.25 
    1800    502.60769    164064.71    72.413514    72.413515    36.128115          120    18774.015    17471.217   -38028.795    1554.9736   -187.29651    -1363.064    72.413514    62.711943    36.128115   -594.52059   -311455.66 
    1810    499.49688    164065.94    72.413695    72.413695    36.128205          120    18980.675    17317.483   -36219.948    2443.9428    -540.3387   -431.81593    72.413695      62.7121    36.128205    26.069763   -311452.15 
    1820    499.20987    164067.15    72.413872    72.413873    36.128294          120    19683.083    17844.888   -36739.201    2254.5784   -458.64856   -299.08695    72.413872    62.712254    36.128294     262.9236   -311454.05 
    1830    498.72086    164068.43     72.41406    72.414061    36.128387          120    19941.159    18397.214   -36415.407    1251.4848   -949.95799   -144.18308     72.41406    62.712416    36.128387    640.98864   -311455.54 
    1840    497.59122    164069.88    72.414274    72.414275    36.128494          120     20208.57     18025.67   -35434.138    873.01204    637.17135    273.38161    72.414274    62.712602    36.128494    933.36758   -311455.22 
    1850    497.85813    164071.58    72.414524    72.414524    36.128619          120    20268.016    18119.465   -36832.524    505.54035    685.07214    676.54275    72.414524    62.712818    36.128619    518.31925   -311457.53 
    1860    496.15619    164073.38    72.414789    72.414789    36.128751          120    18181.691    18201.011    -37757.81    758.79213   -152.38606    173.63106    72.414789    62.713047    36.128751   -458.36952      -311456 
    1870    499.45517    164075.01    72.415029    72.415029    36.128871          120    18157.143    17515.565    -38813.14    787.17737   -5.1463401    70.095984    72.415029    62.713255    36.128871   -1046.8106   -311464.65 
    1880    493.22593     164076.3    72.415218    72.415219    36.128965          120    18544.969    16709.347   -38465.526    1281.3139    335.12502   -241.43674    72.415218    62.713419    36.128965   -1070.4035   -311454.28 
    1890    491.18488    164077.23    72.415356    72.415357    36.129034          120    18178.465    16418.124   -36932.055    314.41067    -365.0123    -1060.026    72.415356    62.713539    36.129034   -778.48853   -311451.88 
    1900    493.84687    164077.92    72.415457    72.415457    36.129084          120     17774.79    17693.534   -35963.368    89.584007    72.763257   -660.43672    72.415457    62.713626    36.129084   -165.01478   -311458.41 
    1910    493.90489    164078.51    72.415544    72.415544    36.129128          120    18155.913     17398.24   -36336.553    293.08748    228.20559   -1201.2597    72.415544    62.713701    36.129128   -260.79984   -311459.41 
    1920    493.82042    164079.01    72.415617    72.415618    36.129164          120    18454.054    17424.413   -37730.131    -98.23706    759.60336   -746.76424    72.415617    62.713765    36.129164   -617.22141   -311460.34 
    1930    493.75581    164079.33    72.415664    72.415664    36.129188          120    17803.862    18227.959   -37214.046   -265.51502    472.31525    -67.15813    72.415664    62.713805    36.129188   -394.07494   -311460.69 
    1940    495.94711     164079.5    72.415689     72.41569      36.1292          120    17854.465    18108.659   -36751.747    614.37512   -198.91986   -1292.5224    72.415689    62.713827      36.1292   -262.87429   -311464.98 
    1950    496.61611    164079.59    72.415703    72.415703    36.129207          120    19244.714    18088.011   -37650.702    933.59623    616.63016   -794.04301    72.415703    62.713839    36.129207    -105.9922   -311466.13 
    1960    495.02871    164079.66    72.415713    72.415713    36.129212          120    20449.366    18233.169   -37422.226    748.80782   -35.603482   -265.54302    72.415713    62.713848    36.129212    420.10336   -311463.24 
    1970    499.64194    164079.85    72.415741    72.415741    36.129226          120    20069.086    18365.701   -36156.096    1697.4563   -487.21517   -453.59123    72.415741    62.713872    36.129226     759.5636   -311472.36 
    1980    494.89024    164080.27    72.415802    72.415803    36.129257          120    20160.517    18736.154   -36459.498    1718.0544   -407.16258    31.108816    72.415802    62.713925    36.129257    812.39096   -311462.26 
    1990    493.85492    164080.94    72.415901    72.415901    36.129306          120    19829.209    19154.241   -36560.191    818.11761    263.94223    142.76306    72.415901     62.71401    36.129306    807.75318   -311459.94 
    2000    492.27712    164081.82     72.41603    72.416031     36.12937          120    18342.068    18381.391   -36744.488    1236.3753   -280.67592   -255.95581     72.41603    62.714122     36.12937   -7.0096178   -311456.37 
    2010    492.89919    164082.69    72.416158    72.416159    36.129434          120     18817.42    17836.929   -37320.775    1718.3484   -432.43681  -0.15365216    72.416158    62.714233    36.129434   -222.14182   -311456.43 
    2020    494.62854     164083.5    72.416277    72.416278    36.129494          120    19714.287    18114.187    -36654.32    938.99976   -162.26129   -762.43663    72.416277    62.714336    36.129494     391.3844   -311458.79 
    2030    494.87934     164084.4    72.416411    72.416411     36.12956          120    20670.372    17981.826   -36386.177     847.7528    267.66005   -849.84335    72.416411    62.714452     36.12956    755.34004   -311457.93 
    2040    497.19627    164085.49    72.416571    72.416572     36.12964          120    19896.196    17244.218   -36774.486    1596.3955    425.77387    24.903627    72.416571    62.714591     36.12964      121.976   -311461.05 
    2050    491.47175     164086.6    72.416734    72.416734    36.129721          120     18481.47    16912.946   -37827.754     857.7573    318.12079    476.44938    72.416734    62.714732    36.129721   -811.11246   -311448.65 
    2060    500.73148    164087.46     72.41686     72.41686    36.129784          120    18350.469     17289.91   -38204.693    461.17229    542.28083   -1096.3583     72.41686    62.714841    36.129784   -854.77121   -311464.68 
    2070    495.61645    164088.04    72.416946    72.416947    36.129827          120    18151.195     18114.93   -36788.293    468.04146    15.358478   -1712.7949    72.416946    62.714916    36.129827   -174.05568   -311452.82 
    2080    503.21086    164088.53    72.417018    72.417019    36.129863          120    18294.601    17500.704   -36226.379    912.43511   -978.48779   -207.77807    72.417018    62.714978    36.129863    -143.6913    -311465.5 
    2090    498.80858    164088.98    72.417084    72.417084    36.129896          120    17716.786    18293.541   -36337.582    367.40034   -1125.0395   -621.55796    72.417084    62.715035    36.129896   -109.08492   -311455.22 
    2100    504.62145    164089.37    72.417141    72.417142    36.129925          120     17761.55    17630.988   -36982.128     133.0555   -957.30853   -1539.7868    72.417141    62.715085    36.129925   -529.86349   -311465.14 
    2110    496.50112    164089.62    72.417178    72.417178    36.129943          120     17938.28     17309.21   -36904.282    280.31613   -569.66772   -58.643151    72.417178    62.715116    36.129943   -552.26427    -311447.1 
    2120    502.23759    164089.68    72.417187    72.417187    36.129947          120    17923.261     17061.15   -37539.736    509.00679   -630.44215   -824.09734    72.417187    62.715124    36.129947   -851.77514   -311455.64 
    2130    505.26828    164089.51    72.417162    72.417162    36.129935          120    18579.516    17980.067   -36872.422     1051.418   -446.18655    -896.4891    72.417162    62.715102    36.129935   -104.27963   -311459.49 
    2140    501.22124    164089.32    72.417133    72.417134    36.129921          120    19745.383    18784.172   -36499.178    1099.2572   -586.28258   -630.27762    72.417133    62.715078    36.129921    676.79226   -311449.87 
    2150    498.07837    164089.31    72.417132    72.417133     36.12992          120    19113.649    18587.566   -36831.619    802.99017   -1293.6955   -975.33181    72.417132    62.715077     36.12992    289.86533   -311442.12 
    2160    501.94256    164089.34    72.417137    72.417137    36.129922          120    18001.681    17888.371   -39399.893    561.28927   -1026.3472   -159.55123    72.417137    62.715081    36.129922   -1169.9468   -311448.34 
    2170    505.72832    164089.07    72.417097    72.417098    36.129903          120    18691.678    18251.039   -38917.119     653.5625   -683.70214   -419.68221    72.417097    62.715046    36.129903   -658.13384   -311453.93 
    2180    503.72466    164088.62     72.41703    72.417031    36.129869          120    19703.028    18740.862   -37581.482    703.78806   -1735.5221   -911.13087     72.41703    62.714989    36.129869    287.46965    -311448.6 
    2190    500.05233    164088.25    72.416976    72.416976    36.129842          120     19675.38    19431.438   -36916.922    937.95692   -1526.4518   -1164.5428    72.416976    62.714941    36.129842    729.96554   -311439.72 
    2200    501.09723    164088.08    72.416952    72.416953     36.12983          120    19566.104     19226.78    -36959.52    1047.9229   -1171.4172    119.94155    72.416952    62.714921     36.12983    611.12134   -311440.96 
    2210    505.05337    164088.11    72.416957    72.416957    36.129833          120    19016.929    18641.871   -36494.365    1346.4599   -891.10021   -549.40617    72.416957    62.714925    36.129833    388.14501   -311447.58 
    2220    502.91412    164088.26    72.416979    72.416979    36.129844          120    19733.017     18722.32   -37599.799    997.30466   -336.12351    -637.3259    72.416979    62.714944    36.129844    285.17939   -311442.47 
    2230    507.42209    164088.52    72.417017    72.417017    36.129863          120    19112.473    18873.586   -36339.137    806.54033    191.62068    -608.9027    72.417017    62.714977    36.129863    548.97382   -311449.92 
    2240    505.71125    164088.92    72.417075    72.417076    36.129892          120    18413.752    19224.846   -36994.336    982.73465   -298.25124   -460.44209    72.417075    62.715028    36.129892    214.75397   -311446.02 
    2250    505.85771     164089.4    72.417146    72.417147    36.129927          120    18537.599    18875.525   -36611.212    656.76503   -1105.1323   -706.46982    72.417146    62.715089    36.129927    267.30394   -311445.57 
    2260      509.813    164089.95    72.417226    72.417227    36.129967          120    18950.965    17902.068   -36861.169    845.66364   -677.48917   -1179.8148    72.417226    62.715158    36.129967   -2.7119705   -311452.72 
[...]
   99200    502.20984    164996.53    72.550348    72.550349    36.196384          120    21699.633    17002.584   -40001.204    1334.2422   -92.149425   -941.60488    72.550348    62.830445    36.196384   -432.99538   -311542.26 
   99210    499.16395    165000.16     72.55088     72.55088    36.196649          120    21976.437    16926.928   -40163.922    1473.8088    35.050008   -792.40362     72.55088    62.830906    36.196649   -420.18563   -311537.44 
   99220    496.06156    165003.64    72.551389     72.55139    36.196903          120    21838.904    16158.225   -39911.543      1752.06   -263.41961   -1094.6051    72.551389    62.831347    36.196903   -638.13791   -311532.72 
   99230    499.52947    165006.88    72.551865    72.551865     36.19714          120    21344.016    15871.382   -41246.137    1896.2894   -591.51347    -1656.979    72.551865    62.831759     36.19714   -1343.5798   -311540.51 
   99240    504.58583    165009.69    72.552277    72.552277    36.197346          120    20941.751    15159.016    -42633.52    1929.6887   -341.82736   -1102.6849    72.552277    62.832115    36.197346   -2177.5845   -311551.59 
   99250    500.80647    165011.81    72.552587    72.552587      36.1975          120    21105.189    14268.659   -43285.767    1293.8485    4.5971666   -255.94691    72.552587    62.832384      36.1975   -2637.3067   -311546.14 
   99260    498.20644    165013.11    72.552778    72.552778    36.197596          120    21758.629    13969.237   -42329.369    850.54514   -348.14285   -251.00891    72.552778    62.832549    36.197596   -2200.5009   -311542.75 
   99270    495.76161    165013.73    72.552869    72.552869    36.197641          120     22495.14    14601.237   -41232.934    213.89617    -781.0132   -81.036429    72.552869    62.832628    36.197641   -1378.8523   -311539.79 
   99280    497.04317    165013.93    72.552898    72.552898    36.197656          120    23124.857    16499.025   -39974.959    7.6066038   -1017.2365   -593.42922    72.552898    62.832653    36.197656   -117.02578   -311543.65 
   99290    496.92235    165014.06    72.552917    72.552917    36.197665          120    22400.297    16197.283   -39256.444    715.11482   -647.57022   -197.76399    72.552917     62.83267    36.197665   -219.62142   -311544.71 
   99300    496.87893    165014.15     72.55293     72.55293    36.197672          120    22080.446    16673.698   -39000.156    953.84982   -824.66483   -191.88539     72.55293    62.832681    36.197672   -82.004012   -311546.25 
   99310    498.54038    165014.19    72.552936    72.552936    36.197675          120    21502.385    17085.185   -39653.835    1610.6564   -866.03287   -643.31687    72.552936    62.832686    36.197675   -355.42179   -311550.18 
   99320    494.48103    165014.13    72.552927    72.552928     36.19767          120    22470.531    17314.545    -40268.24    1039.4512   -1560.3676   -1180.4366    72.552927    62.832679     36.19767   -161.05477   -311544.05 
   99330    494.06907       165014    72.552908    72.552908    36.197661          120    22726.284    16731.569   -40739.453    1413.7973   -1017.8784   -805.37907    72.552908    62.832662    36.197661   -427.19997   -311544.19 
   99340    502.30678    165013.72    72.552867    72.552868     36.19764          120    21567.973    17091.361   -40974.213    2176.4165   -1459.2614   -1310.6817    72.552867    62.832627     36.19764   -771.62631    -311561.1 
   99350    497.51971    165013.23    72.552795    72.552796    36.197604          120    21338.072    17067.415   -40377.446    2377.2959   -1011.0411   -1526.1631    72.552795    62.832564    36.197604   -657.31977   -311553.13 
   99360    493.20695    165012.54    72.552694    72.552695    36.197554          120     22041.38    17736.355   -40727.972    2587.8349   -1520.2168   -1259.3878    72.552694    62.832477    36.197554   -316.74592   -311546.36 
   99370    501.42957    165011.73    72.552576    72.552576    36.197495          120    21515.887     17413.64   -39767.925    1954.3406     -1185.83   -1491.3159    72.552576    62.832374    36.197495   -279.46594   -311563.06 
   99380    492.91714    165010.87     72.55245     72.55245    36.197432          120    22488.403    16807.794   -38274.304    1721.6628   -940.02513   -1185.0803     72.55245    62.832265    36.197432    340.63084   -311547.32 
   99390    495.27698    165010.12    72.552339     72.55234    36.197377          120    23754.926    16932.676   -38641.114    1347.2287    -1340.946   -576.70688    72.552339    62.832169    36.197377    682.16292    -311551.8 
   99400    495.69725    165009.54    72.552255    72.552255    36.197335          120    23289.428    16553.189   -40121.146    1207.1875   -164.46298    -658.6984    72.552255    62.832096    36.197335   -92.842715   -311552.42 
   99410    494.47185    165008.92    72.552163    72.552164    36.197289          120    21593.236    15707.727    -41631.47    1981.7328    126.04459   -835.39033    72.552163    62.832017    36.197289   -1443.5023   -311549.65 
   99420    499.85113    165007.91    72.552015    72.552016    36.197215          120    21564.251    16468.265   -41357.245     1423.185   -580.47114   -152.33638    72.552015    62.831889    36.197215   -1108.2427   -311559.89 
   99430    492.20382    165006.55    72.551816    72.551817    36.197116          120    21438.439    16999.625   -39466.621    845.59677   -1000.7689   -118.72984    72.551816    62.831717    36.197116   -342.85208   -311544.55 
   99440    499.37604    165005.07    72.551599    72.551599    36.197007          120    21112.834    16798.091   -39017.288    871.02652   -1154.9293   -205.57515    72.551599    62.831528    36.197007   -368.78751   -311557.95 
   99450    492.16931    165003.44     72.55136    72.551361    36.196888          120    21829.471    16191.626   -40742.235    694.34618    -511.4909   -236.17844     72.55136    62.831321    36.196888   -907.04623   -311542.95 
   99460    497.09329    165001.55    72.551084    72.551084    36.196751          120    23420.269    16254.034   -41306.488    1096.2264   -72.776008   -99.196673    72.551084    62.831082    36.196751   -544.06152   -311552.69 
   99470     495.6922    164999.49    72.550781    72.550782    36.196599          120      22449.2    16539.528    -41046.76    1440.2639   -688.18829   -510.11729    72.550781     62.83082    36.196599   -686.01058   -311548.88 
   99480    502.52158     164997.2    72.550446    72.550447    36.196432          120     21225.64    16947.662   -41237.772    649.04249   -1490.0909   -1665.1233    72.550446     62.83053    36.196432     -1021.49    -311561.2 
   99490    492.40715     164994.6    72.550065    72.550066    36.196242          120    21208.313    17283.724   -41512.965     766.0003   -1399.2242    -1783.949    72.550065      62.8302    36.196242    -1006.976   -311541.58 
   99500    494.22161    164991.69    72.549639    72.549639     36.19603          120     21224.71    17177.876   -40414.756    1164.2781   -1012.4447   -2046.7993    72.549639    62.829831     36.19603    -670.7235   -311544.42 
   99510    494.99681    164988.59    72.549184    72.549184    36.195803          120    21556.107    16933.635   -38733.492    1303.9637   -648.37069   -1934.2123    72.549184    62.829437    36.195803   -81.250177   -311545.61 
   99520     497.6361    164985.44    72.548723    72.548723    36.195573          120    21972.362    17582.168   -38928.126    2249.7425   -1314.0948   -916.32082    72.548723    62.829038    36.195573     208.8011   -311549.83 
   99530    496.98276    164982.36    72.548271    72.548271    36.195347          120    22095.882    17350.665   -38369.204    1827.5256   -554.06712    246.64718    72.548271    62.828646    36.195347    359.11419   -311547.64 
   99540    493.83892    164979.37    72.547833    72.547833    36.195129          120    21625.508    16647.168   -38742.096    1941.6235   -553.80838   -933.00721    72.547833    62.828267    36.195129   -156.47347   -311541.45 
   99550    498.35366     164976.3    72.547383    72.547384    36.194904          120    20816.613    16285.303   -39912.947    1818.9042    -323.1909   -656.30965    72.547383    62.827877    36.194904   -937.01021   -311549.08 
   99560    495.18136    164972.97    72.546894    72.546894     36.19466          120    20486.293    17363.519   -40194.332    1505.8686   -11.227618   -434.41608    72.546894    62.827454     36.19466   -781.50675   -311542.72 
   99570     499.6055     164969.4    72.546371    72.546372    36.194399          120    21658.384     17908.62   -39878.463    928.16882   -312.41799   -92.700044    72.546371    62.827001    36.194399   -103.81969   -311550.28 
   99580    503.12278    164965.77    72.545838    72.545839    36.194134          120    22313.123    17481.991   -40774.811    1019.5365    -554.3347    3.7853224    72.545838     62.82654    36.194134   -326.56577    -311555.7 
   99590     496.9138    164962.05    72.545294    72.545294    36.193862          120    21753.126    18112.096    -41299.24    615.19574   -1131.2083   -702.45688    72.545294    62.826068    36.193862   -478.00612    -311542.6 
   99600    501.05677     164958.2    72.544729     72.54473     36.19358          120    21272.814    18667.658   -40889.386    611.19966   -858.66975   -985.52181    72.544729    62.825579     36.19358   -316.30467   -311550.01 
   99610    495.73062    164954.22    72.544146    72.544147    36.193289          120     21655.92    17619.388   -40983.727    836.18454   -1305.6738   -933.54521    72.544146    62.825074    36.193289   -569.47287   -311538.88 
   99620     499.4041    164950.08    72.543539    72.543539    36.192986          120    22187.893    16754.479   -39966.791    718.28276   -1226.5155   -1323.7513    72.543539    62.824548    36.192986   -341.47335   -311545.39 
   99630    494.41555    164945.84    72.542917    72.542917    36.192676          120    22690.894    16861.935   -39035.208    1195.9902   -589.97853   -1540.4051    72.542917    62.824009    36.192676    172.54037   -311534.04 
   99640    503.04502     164941.6    72.542296    72.542297    36.192366          120    22525.488    16808.337   -39994.078    1672.1267    -804.5116   -378.21989    72.542296    62.823472    36.192366   -220.08438   -311549.92 
   99650    499.83081     164937.3    72.541666    72.541666    36.192052          120    22202.295    17001.178   -40843.439    1539.4833   -795.76576   -422.00146    72.541666    62.822926    36.192052   -546.65529   -311542.17 
   99660    500.14924    164932.81    72.541006    72.541007    36.191723          120    21363.156    16715.269   -41086.466    447.27816   -163.68287   -663.26944    72.541006    62.822355    36.191723   -1002.6806   -311541.57 
   99670    499.97503    164928.02    72.540304    72.540305    36.191372          120    21516.842    17516.151   -39863.308    1195.3053     35.10428      -700.34    72.540304    62.821747    36.191372   -276.77149   -311540.48 
   99680    497.23057     164923.1    72.539583    72.539583    36.191013          120    21854.623    17191.402   -39642.284    1092.7745   -384.32743   -332.07826    72.539583    62.821122    36.191013   -198.75326   -311534.96 
   99690    502.01543    164918.12    72.538854    72.538855    36.190649          120    23093.748    17413.365   -38895.059    1193.2216   -790.13002    380.23589    72.538854    62.820491    36.190649    537.35133   -311543.17 
   99700    503.42712    164913.34    72.538152    72.538153    36.190299          120    24404.979    17632.573   -38252.397    1210.0841   -1024.0037    -748.2135    72.538152    62.819883    36.190299    1261.7181   -311544.48 
   99710    500.30462    164908.94    72.537508    72.537508    36.189977          120    24572.621    17864.096   -39198.387     461.9726   -2196.8882   -688.18421    72.537508    62.819325    36.189977    1079.4431   -311538.03 
   99720    501.38401    164904.88    72.536913    72.536913     36.18968          120    23960.226    17108.844   -39161.293    1179.5825   -1413.2231    -1508.812    72.536913     62.81881     36.18968    635.92599   -311539.18 
   99730    500.92673    164901.02    72.536346    72.536346    36.189398          120    22486.625    17141.314   -39546.629    1706.8992   -394.98114   -1735.3233    72.536346    62.818319    36.189398    27.103549   -311537.47 
   99740    498.81468     164897.2    72.535787    72.535787    36.189119          120    23375.332    18308.461   -39231.072    2890.8482   -656.21672    24.973961    72.535787    62.817835    36.189119    817.57337   -311532.78 
   99750    503.31758     164893.6    72.535258    72.535258    36.188855          120    23912.701    18037.092   -39660.929    2052.6206   -1235.1544   -1032.2449    72.535258    62.817376    36.188855    762.95472   -311540.75 
   99760    500.12533    164890.23    72.534764    72.534764    36.188608          120    24094.799    17720.262   -39266.134     1176.575   -1216.2547   -625.30857    72.534764    62.816949    36.188608     849.6422   -311534.43 
   99770    501.70866    164887.11    72.534306    72.534307     36.18838          120    22991.031    17729.117   -38642.316    523.08183   -391.41011   -434.01043    72.534306    62.816552     36.18838    692.61085   -311536.44 
   99780    500.98677    164884.21    72.533882    72.533882    36.188168          120    23673.235     17005.37   -38949.985    538.96728   -17.916877   -426.64581    72.533882    62.816185    36.188168    576.20638   -311535.24 
   99790    503.52684    164881.47    72.533479     72.53348    36.187967          120    22849.815     16621.88   -41000.607     1087.139    467.88314   -868.45924    72.533479    62.815836    36.187967   -509.63746   -311539.62 
   99800    505.50313    164878.59    72.533056    72.533057    36.187756          120    22492.201    16197.554   -42006.934    1135.7438   -451.08472   -1036.3922    72.533056     62.81547    36.187756   -1105.7263   -311543.04 
   99810    506.88188    164875.39    72.532588    72.532588    36.187523          120    22342.696    17343.398   -40592.162    1200.2431   -957.89628   -936.30782    72.532588    62.815064    36.187523    -302.0224   -311545.94 
   99820    504.36184    164872.12    72.532108    72.532109    36.187283          120    22564.553    18532.278   -38852.601     798.0725   -245.66337   -719.07831    72.532108    62.814649    36.187283    748.07695   -311541.47 
   99830    500.60295    164869.05    72.531658    72.531658    36.187058          120    21454.344    17766.624    -39075.62    1417.6839   -490.38118   -467.16767    72.531658    62.814259    36.187058    48.449393   -311534.08 
   99840    495.55006       164866     72.53121    72.531211    36.186835          120    21029.528    17225.871    -39199.68    1659.4162   -157.36822   -1026.8996     72.53121    62.813871    36.186835   -314.76023    -311525.2 
   99850    500.72897    164862.84    72.530747    72.530748    36.186604          120    22342.893    17261.396   -39923.621    1729.3589   -137.76445   -1174.3932    72.530747     62.81347    36.186604     -106.444   -311534.78 
   99860    504.21664    164859.63    72.530277    72.530278     36.18637          120    23053.444     17627.59   -40165.664    1318.6888    -217.3427    -891.3377    72.530277    62.813063     36.18637    171.78979   -311542.17 
   99870    500.33963    164856.46    72.529812    72.529813    36.186138          120     23107.77    17143.634   -40336.349    2039.9334   -1.8132465   -293.90563    72.529812     62.81266    36.186138   -28.314814   -311535.79 
   99880    500.81411    164853.27    72.529345    72.529345    36.185905          120    23222.096    16287.054     -39673.2    1852.9607   -411.55033   -577.14422    72.529345    62.812256    36.185905   -54.683184   -311537.75 
   99890    499.87095    164850.06    72.528873    72.528874    36.185669          120    23516.507    16583.022   -40225.441    1616.8539   -726.16994   -391.98872    72.528873    62.811847    36.185669   -41.970584   -311536.87 
   99900    502.26867     164846.8    72.528396    72.528396    36.185431          120    23174.762    17200.658    -40821.75     1390.602   -842.49741   -762.56014    72.528396    62.811434    36.185431   -148.77643   -311542.31 
   99910    500.18348    164843.52    72.527914    72.527914    36.185191          120     23568.39    16997.636   -39178.229    915.84085   -1186.0252   -907.21815    72.527914    62.811016    36.185191    462.59912   -311539.37 
   99920    504.32228    164840.37    72.527452    72.527453     36.18496          120    23128.157    17625.648   -38979.082    1101.7063   -365.45189    -226.4653    72.527452    62.810617     36.18496    591.57433   -311549.32 
   99930    500.07248    164837.42    72.527019     72.52702    36.184744          120    22477.576    17894.063   -39675.224     1072.827    370.07601   -533.54604    72.527019    62.810242    36.184744    232.13855   -311542.62 
   99940    500.63974    164834.53    72.526595    72.526596    36.184533          120    22559.355    17085.459    -40335.26    1680.4003    638.86784    -618.7289    72.526595    62.809875    36.184533   -230.14881   -311545.62 
   99950    497.53316    164831.58    72.526162    72.526163    36.184317          120    22003.005    17637.962   -40953.435    2095.2333    116.31484    17.172042    72.526162      62.8095    36.184317    -437.4891   -311541.85 
   99960    494.66593    164828.48    72.525709    72.525709    36.184091          120    22463.362    16969.081   -40877.851    1151.0296   -1117.9483   -46.338806    72.525709    62.809107    36.184091   -481.80259   -311537.84 
   99970    497.52791    164825.23    72.525231    72.525232    36.183852          120    23104.696    17182.606   -41336.861     617.4553    -1693.148   -1028.6474    72.525231    62.808693    36.183852   -349.85293   -311545.04 
   99980    502.09815    164821.87    72.524739     72.52474    36.183607          120    23199.071    18429.537    -40068.56    1249.1608   -907.46723     -563.177    72.524739    62.808267    36.183607    520.01601   -311555.05 
   99990    495.17534    164818.68    72.524271    72.524271    36.183373          120    23601.748    18528.641   -37937.206    1109.1547   -611.01409   -740.20122    72.524271    62.807862    36.183373    1397.7276   -311543.48 
  100000    496.47558    164815.88    72.523861    72.523861    36.183168          120    23258.044    18382.995   -38051.906     873.9103   -1029.3953    108.57357    72.523861    62.807506    36.183168    1196.3776   -311547.77 
Loop time of 31515.7 on 1 procs for 100000 steps with 14848 atoms

Performance: 0.274 ns/day, 87.544 hours/ns, 3.173 timesteps/s
99.0% CPU use with 1 MPI tasks x no OpenMP threads

MPI task timing breakdown:
Section |  min time  |  avg time  |  max time  |%varavg| %total
---------------------------------------------------------------
Pair    | 24843      | 24843      | 24843      |   0.0 | 78.83
Bond    | 0.027329   | 0.027329   | 0.027329   |   0.0 |  0.00
Kspace  | 1132.7     | 1132.7     | 1132.7     |   0.0 |  3.59
Neigh   | 4838.2     | 4838.2     | 4838.2     |   0.0 | 15.35
Comm    | 46.573     | 46.573     | 46.573     |   0.0 |  0.15
Output  | 1.0761     | 1.0761     | 1.0761     |   0.0 |  0.00
Modify  | 642.77     | 642.77     | 642.77     |   0.0 |  2.04
Other   |            | 11.16      |            |       |  0.04

Nlocal:    14848 ave 14848 max 14848 min
Histogram: 1 0 0 0 0 0 0 0 0 0
Nghost:    46614 ave 46614 max 46614 min
Histogram: 1 0 0 0 0 0 0 0 0 0
Neighs:    9.98305e+06 ave 9.98305e+06 max 9.98305e+06 min
Histogram: 1 0 0 0 0 0 0 0 0 0

Total # of neighbors = 9983054
Ave neighs/atom = 672.35
Ave special neighs/atom = 0
Neighbor list builds = 17062
Dangerous builds = 0
 
All done!
Total wall time: 8:50:33
