LAMMPS (16 Mar 2018)
Reading data file ...
  triclinic box = (0 0 0) to (9.208 7.97436 18.376) with tilt (-4.604 0 0)
  1 by 1 by 1 MPI processor grid
  reading atoms ...
  116 atoms
Finding 1-2 1-3 1-4 neighbors ...
  special bond factors lj:   0          0          0         
  special bond factors coul: 0          0          0         
  0 = max # of 1-2 neighbors
  0 = max # of 1-3 neighbors
  0 = max # of 1-4 neighbors
  1 = max # of special neighbors
Replicating atoms ...
  triclinic box = (0 0 0) to (73.664 63.7949 36.752) with tilt (-36.832 0 0)
  1 by 1 by 1 MPI processor grid
  14848 atoms
Finding 1-2 1-3 1-4 neighbors ...
  special bond factors lj:   0          0          0         
  special bond factors coul: 0          0          0         
  0 = max # of 1-2 neighbors
  0 = max # of 1-3 neighbors
  0 = max # of 1-4 neighbors
  1 = max # of special neighbors
  Time spent = 0.00364113 secs
PPPM initialization ...
WARNING: System is not charge neutral, net charge = -0.2048 (../kspace.cpp:302)
  using 12-bit tables for long-range coulomb (../kspace.cpp:321)
  G vector (1/distance) = 0.201681
  grid = 36 50 24
  stencil order = 5
  estimated absolute RMS force accuracy = 0.00105653
  estimated relative force accuracy = 7.33721e-05
  using double precision FFTs
  3d grid and FFT values/proc = 65395 43200
Neighbor list info ...
  update every 1 steps, delay 0 steps, check yes
  max neighbors/atom: 2000, page size: 100000
  master list distance cutoff = 15.3
  ghost atom cutoff = 15.3
  binsize = 7.65, bins = 15 9 5
  3 neighbor lists, perpetual/occasional/extra = 3 0 0
  (1) pair morse, perpetual
      attributes: half, newton on
      pair build: half/bin/newton/tri
      stencil: half/bin/3d/newton/tri
      bin: standard
  (2) pair buck, perpetual, copy from (1)
      attributes: half, newton on
      pair build: copy
      stencil: none
      bin: none
  (3) pair lj/cut/coul/long, perpetual, copy from (1)
      attributes: half, newton on
      pair build: copy
      stencil: none
      bin: none
Setting up Verlet run ...
  Unit style    : metal
  Current step  : 0
  Time step     : 0.001
Per MPI rank memory allocation (min/avg/max) = 145.7 | 145.7 | 145.7 Mbytes
Step Temp Volume Cella Cellb Cellc CellGamma Pxx Pyy Pzz Pxy Pxz Pyz Lx Ly Lz Press PotEng 
       0          470    172711.88       73.664    73.664001       36.752          120   -205898.58   -205978.76   -276953.68    38.306785   -11.952539    15.984345       73.664    63.794896       36.752   -229610.34   -309191.56 
      10    440.27569    172669.53    73.657978    73.657979    36.748996          120   -204967.37   -205052.55   -251846.72    137.28904   -34.166854   -218.20575    73.657978    63.789681    36.748996   -220622.21    -309157.5 
      20    725.05545    172545.77    73.640377    73.640377    36.740214          120   -197980.39   -197703.65   -190881.17    48.504264   -281.70079   -479.92451    73.640377    63.774438    36.740214   -195521.74   -309727.69 
      30    768.92097    172351.01    73.612658    73.612659    36.726385          120   -163746.98   -163539.85   -111579.64   -178.39281   -853.74057   -520.54291    73.612658    63.750433    36.726385   -146288.82   -309849.32 
      40    548.14182    172105.08    73.577629     73.57763    36.708908          120   -113997.97   -114452.33   -31546.703   -927.74737   -1161.8521   -531.80073    73.577629    63.720097    36.708908   -86665.667   -309448.74 
      50    645.65657    171831.87    73.538675    73.538676    36.689474          120   -77699.111   -78659.235    -6177.797   -610.99509   -1053.6542   -645.79732    73.538675    63.686361    36.689474   -54178.714      -309646 
      60    914.90236    171546.95    73.498007    73.498007    36.669184          120   -62101.909   -61808.552   -49799.976   -921.41634   -1910.6136   -548.67768    73.498007    63.651142    36.669184   -57903.479   -310180.91 
      70    1062.8224    171254.17     73.45617    73.456171    36.648311          120   -53406.443   -53576.844   -113604.29    -1888.097     -2476.11   -747.63789     73.45617     63.61491    36.648311   -73529.192   -310507.72 
      80     934.5685    170952.94    73.413076    73.413076     36.62681          120   -49133.365   -50726.195   -158786.81   -1914.1071   -2552.5648   -23.465423    73.413076    63.577589     36.62681   -86215.455   -310310.89 
      90    689.37281    170643.98    73.368823    73.368824    36.604732          120   -45365.307   -46046.045   -171469.54   -2061.8821   -3017.8314   -915.53449    73.368823    63.539266    36.604732   -87626.963   -309881.52 
     100    706.64372    170332.33    73.324131    73.324132    36.582435          120   -29238.788   -29457.165   -150309.41   -1900.7864   -2740.4042     -1252.82    73.324131    63.500561    36.582435   -69668.456   -309949.55 
     110    867.89559    170028.43    73.280497    73.280498    36.560665          120   -9255.9053   -9791.0897   -109433.99   -1913.3294   -1231.4185   -1600.7827    73.280497    63.462773    36.560665   -42826.995   -310298.16 
     120    887.94903    169743.73    73.239574    73.239575    36.540248          120    1439.2555    1386.0787   -62130.797   -1870.1769   -699.46876    -1662.934    73.239574    63.427333    36.540248   -19768.487   -310378.97 
     130    795.23131    169485.87    73.202469    73.202469    36.521736          120    1247.0668    2425.7887   -24933.149   -1552.7446   -839.47426   -1800.8894    73.202469    63.395198    36.521736   -7086.7643   -310239.28 
     140    745.91542    169256.72    73.169463    73.169463    36.505268          120   -2847.7874   -2996.1096   -11531.649   -915.38101   -839.49921   -1964.6962    73.169463    63.366614    36.505268   -5791.8485   -310176.06 
     150    784.48798    169052.96    73.140089     73.14009    36.490614          120   -10304.093   -9505.0641   -30449.913   -1741.6861   -455.62931   -1639.9271    73.140089    63.341176    36.490614   -16753.023   -310281.74 
     160    845.21613    168867.23    73.113294    73.113295    36.477245          120   -19364.752   -18373.191   -63076.247   -1494.6977   -1294.0878   -2074.8759    73.113294    63.317971    36.477245    -33604.73   -310437.77 
     170    843.91648    168690.98    73.087849     73.08785     36.46455          120   -23867.784   -22743.535   -92428.135   -1011.1147   -1996.2365    -2050.946    73.087849    63.295935     36.46455   -46346.484   -310478.24 
     180    776.13875    168517.78    73.062826    73.062827    36.452066          120   -22693.719   -20785.895    -111125.7   -1180.8237   -2393.5517   -2178.1078    73.062826    63.274264    36.452066   -51535.105   -310391.04 
     190    744.91886    168344.37    73.037757    73.037758    36.439559          120   -18881.682   -16842.848   -112229.91   -722.08586   -2386.1518   -2216.6545    73.037757    63.252554    36.439559   -49318.146   -310370.13 
     200    774.90502     168170.4    73.012589     73.01259    36.427002          120   -14441.253   -14133.765   -96248.694   -1240.0815    -2014.994   -2103.9846    73.012589    63.230758    36.427002   -41607.904   -310465.75 
     210    792.59019    167997.46    72.987552    72.987553    36.414511          120   -9884.7894   -10017.948   -74596.524   -1524.7545    -1880.695   -1769.8281    72.987552    63.209075    36.414511   -31499.754   -310538.94 
     220    776.25461    167827.91     72.96299    72.962991    36.402256          120   -7370.7827   -5676.8317   -56567.223   -1446.2667   -1202.5499   -2784.9535     72.96299    63.187804    36.402256   -23204.946   -310545.57 
     230    756.80425     167663.5    72.939156    72.939156    36.390365          120   -7244.0576   -5848.8023   -47428.525   -969.53288   -568.87063   -3403.3591    72.939156    63.167163    36.390365   -20173.795   -310544.62 
     240    749.24134    167504.28    72.916061    72.916062    36.378843          120   -10014.329   -7848.9138   -48796.753   -550.25311   -1729.4022   -3684.6938    72.916061    63.147162    36.378843   -22219.999   -310566.08 
     250    759.94513    167348.76    72.893487    72.893488     36.36758          120   -12939.305   -11389.643    -60229.75   -409.64988   -2420.5508   -3469.2174    72.893487    63.127612     36.36758   -28186.233   -310623.28 
     260    768.06243    167194.46    72.871078    72.871078      36.3564          120   -14332.797     -14239.1   -73159.084   -564.16706   -2488.1177   -3788.9344    72.871078    63.108205      36.3564   -33910.327   -310678.11 
     270    749.48516    167039.22    72.848516    72.848517    36.345144          120   -13531.188   -15559.998   -83412.441   -235.82826   -2295.1808   -3296.6454    72.848516    63.088666    36.345144   -37501.209   -310681.69 
     280    728.29816    166881.81    72.825626    72.825626    36.333723          120   -13033.768   -12785.615   -85821.276   -187.45952   -1721.8942   -2054.4784    72.825626    63.068843    36.333723   -37213.553   -310679.25 
     290    724.87436    166722.51    72.802446    72.802447    36.322159          120   -9499.6797   -6962.8694   -78915.671    258.12526   -1221.3709   -2277.0836    72.802446    63.048769    36.322159    -31792.74   -310709.34 
     300    729.11631     166563.2    72.779251    72.779251    36.310586          120   -5153.9704   -2784.9533   -67665.922    551.88186   -1257.7808   -1875.4091    72.779251    63.028681    36.310586   -25201.615   -310752.59 
     310    719.92351    166406.17    72.756372    72.756373    36.299172          120   -2150.7157   -988.85873   -55606.779    340.76999   -227.93867   -2377.4626    72.756372    63.008867    36.299172   -19582.118   -310770.02 
     320    709.59632    166253.21    72.734072    72.734073    36.288046          120   -672.05379   -1213.1378    -46963.02    336.32752   -431.12393   -1797.5804    72.734072    62.989555    36.288046   -16282.737   -310784.15 
     330    699.58159    166105.26    72.712491    72.712492    36.277279          120   -349.60176   -958.45509   -43321.817    113.11113   -458.85785   -2068.8439    72.712491    62.970865    36.277279   -14876.624   -310798.71 
     340    701.16744    165962.53    72.691658    72.691658    36.266885          120   -2204.3794   -356.21751   -47635.701   -159.42987   -1006.0401   -2093.7036    72.691658    62.952823    36.266885   -16732.099   -310834.47 
     350    698.39664    165824.17    72.671452    72.671452    36.256804          120   -2901.8053   -875.46819    -56756.35   -487.42088    -1448.439   -2286.6807    72.671452    62.935324    36.256804   -20177.874   -310862.44 
     360     683.7709    165688.87    72.651683    72.651683    36.246941          120    -2966.221   -592.29809   -65670.075   -754.10928   -1105.8059   -2438.8102    72.651683    62.918203    36.246941   -23076.198   -310867.19 
     370    672.11668    165555.63    72.632203    72.632203    36.237222          120   -2231.5401    302.10509   -68593.867   -415.58749   -3112.9517    -2955.152    72.632203    62.901334    36.237222   -23507.768   -310876.15 
     380    671.74417     165424.3    72.612991    72.612992    36.227637          120    282.15785    2597.5215   -63805.378   -703.12506   -3406.3572   -3288.1518    72.612991    62.884695    36.227637   -20308.566   -310906.52 
     390     669.4371    165295.74    72.594177    72.594177     36.21825          120    3551.3949    4980.5815    -57400.16   -851.91233   -2616.3279   -2608.8436    72.594177    62.868402     36.21825   -16289.395    -310932.3 
     400    660.31467    165171.16    72.575934    72.575935    36.209149          120    6244.8398    6393.9075   -49687.536    -972.0321   -1585.0031    -2453.021    72.575934    62.852603    36.209149   -12349.596   -310944.75 
     410    658.17581    165051.55    72.558411    72.558412    36.200406          120    6481.8184    7667.8543   -42721.834   -786.98723   -1239.2643   -2426.4663    72.558411    62.837428    36.200406   -9524.0537   -310969.69 
     420      652.205    164937.47    72.541691    72.541691    36.192064          120    6538.9947    8630.7608   -40706.037   -108.56234   -1733.5502   -1955.5005    72.541691    62.822948    36.192064    -8512.094   -310987.89 
     430    645.90186    164828.85    72.525763    72.525764    36.184118          120    6882.8027    7529.6761   -42889.648   0.14536857   -1775.8584   -2330.2115    72.525763    62.809154    36.184118   -9492.3897   -311003.88 
     440    634.51681    164724.98    72.510525    72.510526    36.176515          120    6568.2902    6217.2906   -47171.785    589.44331    -1909.026   -1358.4783    72.510525    62.795957    36.176515   -11462.068   -311009.86 
     450    629.07741    164624.86    72.495831    72.495832    36.169184          120    6007.6502    6015.2063    -52005.16    416.02853   -1840.1092   -820.35692    72.495831    62.783232    36.169184   -13327.435   -311026.53 
     460    620.22468    164527.67    72.481561    72.481562    36.162065          120    7611.9436    8135.4593   -53851.503    793.34388   -1615.6281   -1520.8136    72.481561    62.770874    36.162065   -12701.367   -311036.24 
     470    613.88199    164433.29    72.467701    72.467701    36.155149          120    9062.6265    10470.065   -52869.762    1495.0401   -2994.5803   -762.08889    72.467701     62.75887    36.155149   -11112.357   -311049.23 
     480    615.86312    164342.04    72.454292    72.454292     36.14846          120    10914.149    12022.793   -48233.972    1276.3985   -2561.1262   -1097.4771    72.454292    62.747258     36.14846   -8432.3432    -311077.8 
     490    606.23704    164254.47    72.441421    72.441421    36.142038          120     11778.62    14862.092   -42287.694    1383.8892   -2837.4382   -1089.8236    72.441421    62.736111    36.142038   -5215.6608   -311083.46 
     500    597.83243    164171.29     72.42919    72.429191    36.135936          120    13933.238    16394.062    -38133.68     1638.561   -1718.0472   -1691.5787     72.42919    62.725519    36.135936   -2602.1267   -311090.77 
     510    602.89766    164092.96     72.41767     72.41767    36.130188          120     14777.34    16289.075   -35924.648    1738.8023   -1603.5375   -1430.1197     72.41767    62.715542    36.130188   -1619.4111   -311124.14 
     520     597.7564     164019.4    72.406847    72.406848    36.124789          120    13552.453    15440.736   -36160.652    1663.8455   -1269.5858   -1103.1413    72.406847     62.70617    36.124789   -2389.1542   -311137.58 
     530    591.65165    163950.02    72.396636    72.396637    36.119695          120    14284.066    15899.287    -38635.22     1734.304   -591.53763   -1220.7238    72.396636    62.697327    36.119695   -2817.2891   -311148.45 
     540    585.35488    163884.32    72.386964    72.386965    36.114869          120      14732.5    17148.524   -41798.551    1629.4358   -783.80183   -820.03222    72.386964     62.68895    36.114869   -3305.8422   -311158.94 
     550    581.09693    163821.86    72.377767    72.377768    36.110281          120    15442.678    17785.967   -42753.911    1858.2658   -776.23237   -42.770169    72.377767    62.680986    36.110281   -3175.0885   -311172.61 
     560    574.02598    163762.42    72.369013    72.369013    36.105913          120     16159.39    17866.826   -41216.208    1353.4411   -501.30886   -616.74462    72.369013    62.673404    36.105913   -2396.6637   -311180.65 
     570    566.49863    163705.98    72.360698    72.360698    36.101764          120    16460.877    17904.131   -39710.369    1106.2862   -686.32307     -449.193    72.360698    62.666203    36.101764    -1781.787   -311187.24 
     580    565.16639    163652.55    72.352823    72.352824    36.097836          120    17530.687    18815.543   -37716.019    1521.2275    -1369.537   -1151.1708    72.352823    62.659384    36.097836   -456.59632   -311205.13 
     590    557.08976    163602.26    72.345412    72.345413    36.094138          120    17853.511     19139.13   -34425.756    1854.8278   -1039.0208    -1519.837    72.345412    62.652965    36.094138    855.62824   -311209.68 
     600    552.38486    163555.26    72.338484    72.338485    36.090682          120    17612.578    18896.144    -33484.23    2281.3659   -580.20076   -1420.4246    72.338484    62.646965    36.090682     1008.164   -311219.86 
     610    556.04821    163511.42     72.33202     72.33202    36.087456          120    17882.338    19918.977    -34044.61    1891.9205   -469.91179   -954.03913     72.33202    62.641367    36.087456    1252.2351   -311245.31 
     620     551.6593    163470.55    72.325993    72.325994     36.08445          120    19109.572     19614.77   -35091.985    1141.1143   -110.01707   -1167.7769    72.325993    62.636148     36.08445    1210.7853   -311255.42 
     630    542.43239    163432.46    72.320374    72.320375    36.081646          120      20070.3     19315.24   -35544.085     867.3977    188.12421   -415.95411    72.320374    62.631282    36.081646    1280.4853   -311256.01 
     640    537.60262    163396.94    72.315135    72.315135    36.079032          120    19841.051    20216.418   -37270.038    596.38396    459.53635   -257.00787    72.315135    62.626744    36.079032    929.14373   -311264.86 
     650    534.07916    163363.75    72.310238    72.310239    36.076589          120    20332.249    20330.305   -37108.771    985.97607    380.82813   -177.99536    72.310238    62.622504    36.076589    1184.5944   -311275.63 
     660    532.81982     163332.8    72.305671    72.305672    36.074311          120    19771.834    20976.886   -35499.115    1329.6619   -185.25691   -33.645775    72.305671    62.618549    36.074311    1749.8686   -311289.94 
     670    532.06573    163304.09    72.301435    72.301435    36.072197          120    19815.734     20139.88   -34343.994    1241.3349   -398.56116   -715.95305    72.301435     62.61488    36.072197    1870.5401   -311304.81 
     680    526.91031    163277.55    72.297518    72.297519    36.070243          120    20097.774    20367.575   -33550.173    1206.8283   -1717.1858   -1281.2028    72.297518    62.611488    36.070243    2305.0585   -311311.07 
     690    524.67914    163253.16    72.293917    72.293918    36.068446          120    19803.134    19786.045   -32942.106    1683.5022   -1341.9817   -1122.9114    72.293917    62.608369    36.068446    2215.6909   -311322.69 
     700     518.2908    163230.78    72.290613    72.290614    36.066798          120    19494.635    20225.816   -31655.215    1379.2872    133.93023   -782.81634    72.290613    62.605508    36.066798     2688.412   -311325.79 
     710    512.92278    163210.43    72.287609     72.28761    36.065299          120    20367.154    20525.419    -31766.59     872.1006    177.59627   -1023.0151    72.287609    62.602907    36.065299    3041.9942   -311330.74 
     720     513.0049    163192.07    72.284898    72.284899    36.063947          120     20154.13    20562.592   -33664.148     1401.116    184.11743   -541.49744    72.284898    62.600559    36.063947    2350.8577   -311345.89 
     730    508.81859    163175.42    72.282441    72.282441    36.062721          120    19316.647    20977.034   -32623.091    1994.4313    415.38266   -332.30109    72.282441    62.598431    36.062721    2556.8631   -311352.08 
     740    503.70657    163160.43    72.280227    72.280228    36.061616          120    20804.309    19796.308     -32708.3    1388.6994    382.25583    488.43141    72.280227    62.596514    36.061616    2630.7725   -311355.63 
     750    498.08514    163147.04    72.278249     72.27825     36.06063          120    21480.621     19661.14   -32482.883    1252.2025    702.31304    622.04546    72.278249    62.594801     36.06063    2886.2926   -311357.38 
     760    494.84586     163135.2    72.276501    72.276502    36.059757          120    20929.116    20421.615    -33309.82    2201.4408    444.53978   -95.283214    72.276501    62.593287    36.059757    2680.3038   -311363.94 
     770    493.61601    163124.78    72.274962    72.274963     36.05899          120    20248.109     19830.42   -33631.367    2279.3352    182.88502   -580.42719    72.274962    62.591954     36.05899    2149.0542   -311374.03 
     780    495.96814    163115.58    72.273603    72.273604    36.058312          120    21460.708    20187.242   -33675.062    1688.1583     14.94504   -883.93043    72.273603    62.590777    36.058312    2657.6297   -311389.96 
     790    491.60273    163107.66    72.272434    72.272435    36.057728          120    21589.545    21026.438   -32731.354     1166.217      51.7692   -1163.2827    72.272434    62.589765    36.057728    3294.8766   -311393.91 
     800    489.30175    163101.16    72.271474    72.271474    36.057249          120    21878.519    20763.979    -32656.36    1922.2642     188.7042    -1631.159    72.271474    62.588933    36.057249    3328.7125   -311400.32 
     810    486.87979    163096.04    72.270717    72.270718    36.056872          120    23063.264    20276.495   -32910.757    1354.1029    380.81985   -1177.4717    72.270717    62.588278    36.056872    3476.3339   -311406.17 
     820    481.58542    163092.25    72.270158    72.270158    36.056593          120    22978.707    20132.711   -33100.415    1800.9972    174.00925   -97.073768    72.270158    62.587793    36.056593    3337.0014    -311406.4 
     830    482.30097    163089.73    72.269785    72.269786    36.056407          120    22322.215    20994.432   -33635.585    2062.4067   -246.83766    365.68952    72.269785     62.58747    36.056407    3227.0206    -311418.5 
     840     477.4519    163088.36    72.269583    72.269584    36.056306          120    22474.734    21030.998   -34002.584    1726.1721   -349.56435    628.66106    72.269583    62.587296    36.056306    3167.7158   -311418.77 
     850    476.14482     163088.1    72.269544    72.269545    36.056286          120    21844.459    21661.416   -32515.901    2362.4133    -686.9458   -47.873745    72.269544    62.587262    36.056286    3663.3249   -311425.33 
     860    471.79683    163089.01    72.269679     72.26968    36.056354          120    20843.575    22061.768   -32278.711    1695.5426    26.081674   -1193.2399    72.269679    62.587379    36.056354    3542.2104   -311425.62 
     870    469.77613    163091.03    72.269978    72.269979    36.056503          120    20483.752    21230.677    -32122.54    1848.8411    1082.2624   -1590.8144    72.269978    62.587637    36.056503    3197.2962   -311430.37 
     880    468.64738    163094.03     72.27042    72.270421    36.056724          120    20123.398    21188.432   -32193.468    1844.5014    998.72222   -1313.1432     72.27042     62.58802    36.056724    3039.4541   -311436.49 
     890      473.406    163097.85    72.270985    72.270985    36.057005          120    19365.842    21546.981    -33805.76    1746.9251    906.49187   -274.61745    72.270985    62.588509    36.057005    2369.0211   -311452.74 
     900    463.81609    163102.31    72.271644    72.271645    36.057334          120    20456.871    21390.672   -33896.425    1356.2256    1610.7085    304.02674    72.271644     62.58908    36.057334    2650.3728   -311440.89 
     910     461.6449    163107.43      72.2724      72.2724    36.057711          120    20080.865    21366.444   -34239.495    1651.1493    2104.1415    1259.7434      72.2724    62.589735    36.057711    2402.6049   -311443.27 
     920    463.85624    163113.14    72.273243    72.273244    36.058132          120    20449.946    21461.918   -34069.697    1848.4532    733.89502    514.12847    72.273243    62.590466    36.058132    2614.0556   -311453.42 
     930    464.90787    163119.44    72.274173    72.274174    36.058596          120    20769.406    21453.888   -36107.978    1101.3053      215.681    98.703045    72.274173    62.591271    36.058596    2038.4384   -311461.37 
     940    461.04402    163126.17    72.275167    72.275168    36.059092          120    20588.735    21349.113   -36318.419    792.11086   -95.204024   -9.9709765    72.275167    62.592131    36.059092    1873.1431   -311458.95 
     950    458.82519    163133.24    72.276212    72.276213    36.059613          120    21054.066    20601.891   -36270.865    878.15395      105.906    480.89366    72.276212    62.593037    36.059613    1795.0306   -311459.24 
     960    460.90545    163140.65    72.277307    72.277307    36.060159          120     22030.24    19710.896    -35165.65    808.20348    110.66258    275.59248    72.277307    62.593984    36.060159    2191.8287   -311467.75 
     970    455.43478    163148.48    72.278462    72.278463    36.060736          120    21254.617    20503.912   -35181.142    682.34691     112.9497    406.84346    72.278462    62.594985    36.060736    2192.4622   -311461.07 
     980     453.8655    163156.73     72.27968    72.279681    36.061344          120    20826.942    21440.929   -34552.813    723.10601    168.75039    538.59027     72.27968     62.59604    36.061344    2571.6861   -311461.84 
     990    462.49557    163165.48    72.280973    72.280974    36.061989          120    20294.609     21351.24    -33179.65     840.0928    476.76289     402.9345    72.280973     62.59716    36.061989    2822.0667   -311481.27 
    1000    451.48458    163174.81    72.282351    72.282352    36.062676          120     19719.03    21770.342   -33012.943     1195.335    340.58249    1122.2387    72.282351    62.598353    36.062676    2825.4764   -311462.02 
Loop time of 317.09 on 1 procs for 1000 steps with 14848 atoms

Performance: 0.272 ns/day, 88.081 hours/ns, 3.154 timesteps/s
100.0% CPU use with 1 MPI tasks x no OpenMP threads

MPI task timing breakdown:
Section |  min time  |  avg time  |  max time  |%varavg| %total
---------------------------------------------------------------
Pair    | 245.11     | 245.11     | 245.11     |   0.0 | 77.30
Bond    | 0.00022697 | 0.00022697 | 0.00022697 |   0.0 |  0.00
Kspace  | 11.259     | 11.259     | 11.259     |   0.0 |  3.55
Neigh   | 53.768     | 53.768     | 53.768     |   0.0 | 16.96
Comm    | 0.45077    | 0.45077    | 0.45077    |   0.0 |  0.14
Output  | 0.010979   | 0.010979   | 0.010979   |   0.0 |  0.00
Modify  | 6.3808     | 6.3808     | 6.3808     |   0.0 |  2.01
Other   |            | 0.1135     |            |       |  0.04

Nlocal:    14848 ave 14848 max 14848 min
Histogram: 1 0 0 0 0 0 0 0 0 0
Nghost:    46802 ave 46802 max 46802 min
Histogram: 1 0 0 0 0 0 0 0 0 0
Neighs:    1.00854e+07 ave 1.00854e+07 max 1.00854e+07 min
Histogram: 1 0 0 0 0 0 0 0 0 0

Total # of neighbors = 10085369
Ave neighs/atom = 679.241
Ave special neighs/atom = 0
Neighbor list builds = 190
Dangerous builds = 0
PPPM initialization ...
  using 12-bit tables for long-range coulomb (../kspace.cpp:321)
  G vector (1/distance) = 0.20261
  grid = 36 50 24
  stencil order = 5
  estimated absolute RMS force accuracy = 0.000997327
  estimated relative force accuracy = 6.92605e-05
  using double precision FFTs
  3d grid and FFT values/proc = 65395 43200
Setting up Verlet run ...
  Unit style    : metal
  Current step  : 0
  Time step     : 0.001
Per MPI rank memory allocation (min/avg/max) = 151.5 | 151.5 | 151.5 Mbytes
Step Temp Volume Cella Cellb Cellc CellGamma Pxx Pyy Pzz Pxy Pxz Pyz Lx Ly Lz Press PotEng 
       0    451.48458    163174.81    72.282351    72.282352    36.062676          120    19731.102     21782.58   -33006.342    1195.7942    340.69701    1122.3951    72.282351    62.598353    36.062676      2835.78   -311461.84 
      10    456.57712     163184.7    72.283811    72.283811    36.063404          120    20590.955    21642.708    -34280.91     1349.416    195.25659    1714.8217    72.283811    62.599617    36.063404    2650.9178   -311473.73 
      20    460.57045    163195.07    72.285342    72.285343    36.064168          120    20126.429    21783.162    -34272.44    2215.2523    200.91805    1270.5232    72.285342    62.600943    36.064168    2545.7169    -311482.7 
      30    459.20138    163205.87    72.286937    72.286937    36.064964          120    20742.107    20393.605   -34606.814    2147.8067    315.95166    717.42971    72.286937    62.602324    36.064964    2176.2991   -311481.06 
      40    459.89044       163217     72.28858    72.288581    36.065784          120    20491.742    20402.895   -34070.343    1744.3166    33.260841    496.92576     72.28858    62.603747    36.065784    2274.7648   -311482.67 
      50    459.08551    163228.47    72.290272    72.290273    36.066628          120    20660.975    20533.002   -34056.074    2239.4104   -351.88241    600.05337    72.290272    62.605213    36.066628     2379.301   -311481.11 
      60    456.19685    163240.27    72.292015    72.292015    36.067497          120    19306.787    20273.743   -33533.798    1728.3347   -631.95644    670.20516    72.292015    62.606722    36.067497    2015.5777   -311475.72 
      70    455.59492    163252.31    72.293792    72.293793    36.068384          120     18516.01    19558.592   -33242.223    1315.4047    -88.72064    -254.8655    72.293792    62.608261    36.068384    1610.7929   -311473.96 
      80    456.91264    163264.46    72.295586    72.295587    36.069279          120    18906.776    19192.543     -33699.8    1901.7068   -151.55393   -572.34824    72.295586    62.609815    36.069279    1466.5066   -311474.84 
      90    456.35553    163276.64    72.297383    72.297383    36.070175          120    19247.883    18573.788   -35189.711    1790.9592    333.27771   -768.96117    72.297383    62.611371    36.070175    877.32028   -311471.87 
     100    457.21147    163288.68     72.29916    72.299161    36.071062          120    19589.148    18404.831   -35616.505    1911.4565      23.2681   -630.75028     72.29916     62.61291    36.071062    792.49124   -311470.69 
     110    454.70223    163300.54    72.300911    72.300911    36.071936          120     18716.03    19030.675   -35839.158    1960.1843   -1026.4749   -553.96176    72.300911    62.614426    36.071936    635.84867   -311462.88 
     120    461.25229    163312.21    72.302633    72.302633    36.072795          120    19461.853    19166.832   -35548.647    1244.0181   -277.62344   -531.84135    72.302633    62.615917    36.072795    1026.6791   -311471.61 
     130    460.99029    163323.81    72.304345    72.304346    36.073649          120    19129.638    20408.786   -35143.629    1481.7839    -921.4937    194.05179    72.304345      62.6174    36.073649    1464.9315   -311467.43 
     140    462.84099    163335.47    72.306066    72.306066    36.074508          120    18984.424    20395.206   -35664.205    1257.9568   -603.24041    34.641581    72.306066     62.61889    36.074508    1238.4748   -311466.56 
     150    463.74302    163347.16     72.30779    72.307791    36.075368          120    19688.252    19910.831   -34429.483    1652.8733   -621.99737    948.89707     72.30779    62.620384    36.075368       1723.2   -311463.88 
     160    465.86506    163358.97    72.309533    72.309534    36.076238          120    20452.495    19740.664   -34682.323    1670.4243   -629.23038    760.48902    72.309533    62.621893    36.076238    1836.9454   -311463.45 
     170    467.72109    163370.99    72.311307    72.311308    36.077123          120    20783.692     19646.51   -34100.819    1810.5706    -1263.388    589.79708    72.311307     62.62343    36.077123    2109.7942    -311462.4 
     180    469.59493    163383.29    72.313122    72.313122    36.078028          120    19689.329    19376.678   -33026.635    1383.3515   -589.76492    1182.8924    72.313122    62.625001    36.078028    2013.1243   -311462.15 
     190    469.21238     163395.8    72.314966    72.314967    36.078948          120    18885.919    18537.929   -34311.081    1177.7394   -43.277029    1453.3995    72.314966    62.626599    36.078948     1037.589   -311456.41 
     200    469.48574    163408.23    72.316801    72.316801    36.079863          120    18550.642    19577.056   -36680.979    1638.1555    296.42182    1429.4046    72.316801    62.628187    36.079863    482.23994   -311452.66 
     210    472.85814    163420.42    72.318599      72.3186    36.080761          120    19363.316    19449.553   -37200.531    870.95687    955.16183    1162.4147    72.318599    62.629745    36.080761    537.44601   -311454.25 
     220    471.03747     163432.4    72.320366    72.320367    36.081642          120    19626.466    19318.709   -35225.353    907.72567    906.58791    876.94224    72.320366    62.631275    36.081642    1239.9408   -311446.46 
     230    475.85577    163444.37    72.322131    72.322132    36.082523          120    20536.519    19249.768   -35334.308    1152.3456    230.25605     327.7464    72.322131    62.632804    36.082523    1483.9928   -311451.29 
     240    474.37473    163456.43     72.32391    72.323911     36.08341          120    21173.602    18982.652   -35317.913    1138.5323   -79.559455    58.959822     72.32391    62.634344     36.08341    1612.7803   -311444.24 
     250    475.35168    163468.62    72.325708    72.325708    36.084307          120    20051.796    18800.723   -33703.114     1170.139   -594.79534   -71.093452    72.325708    62.635901    36.084307    1716.4686   -311442.65 
     260    478.06367    163480.95    72.327526    72.327527    36.085215          120    19523.425    18779.255   -33945.975    1629.8469   -311.93681   -285.58785    72.327526    62.637476    36.085215     1452.235   -311443.72 
     270    479.79868    163493.35    72.329356    72.329356    36.086127          120    18987.709    19467.795    -34690.42    839.98577    501.43978   -156.04871    72.329356     62.63906    36.086127    1255.0281   -311443.83 
     280    476.00699    163505.75    72.331184    72.331184    36.087039          120    18405.778    19688.923   -35701.747    896.08357    108.41719   -1.9566773    72.331184    62.640643    36.087039    797.65147   -311434.09 
     290    476.85022    163518.02    72.332992    72.332993    36.087942          120    18465.148    19912.325   -36600.476    780.86638    150.28265    589.71261    72.332992     62.64221    36.087942    592.33213   -311434.03 
     300    484.25026    163530.07     72.33477     72.33477    36.088828          120    18046.573     19544.35   -36624.825    966.23011   -429.01801    127.19134     72.33477    62.643749    36.088828    322.03297   -311445.96 
     310    477.75764    163541.85    72.336506    72.336507    36.089695          120    17814.427    20003.659   -36864.657    1048.9303   -1438.3462    35.236346    72.336506    62.645252    36.089695     317.8098    -311431.6 
     320    481.75181    163553.36    72.338203    72.338204    36.090541          120    18434.304    19940.987   -36785.795    1725.4909   -1916.0315    328.43974    72.338203    62.646722    36.090541    529.83211   -311438.03 
     330    480.35681    163564.69    72.339874    72.339875    36.091375          120    19723.166    19789.955   -36901.674    784.26209    -497.6421    511.78034    72.339874    62.648169    36.091375    870.48216   -311434.25 
     340      479.551    163575.95    72.341533    72.341534    36.092203          120     18869.23    19312.281   -35527.266    525.01698    87.879783    754.56363    72.341533    62.649606    36.092203    884.74812   -311432.19 
     350    480.87924    163587.12     72.34318     72.34318    36.093024          120    18980.301    17743.012   -34991.341    570.68031    767.57147    998.24139     72.34318    62.651032    36.093024    577.32413   -311434.74 
     360    483.07832    163598.11      72.3448      72.3448    36.093832          120    18977.669    17365.688   -36585.591     787.3362    932.05248    1678.3482      72.3448    62.652435    36.093832   -80.744688   -311439.17 
     370    480.34084    163608.76     72.34637    72.346371    36.094616          120    18930.314    17587.493   -36338.061    1410.2063    337.65153    824.74758     72.34637    62.653795    36.094616    59.915067   -311435.08 
     380    482.97581     163619.1    72.347893    72.347894    36.095376          120    18705.892    17531.755   -36446.587    993.25439   -643.76239    1559.3307    72.347893    62.655114    36.095376     -69.6467   -311441.53 
     390    487.36038    163629.09    72.349366    72.349367    36.096111          120    18570.773    17074.348   -36092.073    966.41496   -1327.9153    355.92007    72.349366     62.65639    36.096111   -148.98419    -311452.4 
     400    477.04003    163638.75     72.35079    72.350791    36.096821          120    18582.131    17767.502    -35656.68    1676.0327   -1094.7582    172.51028     72.35079    62.657623    36.096821     230.9843    -311434.7 
     410    477.69949    163648.18    72.352179     72.35218    36.097514          120    18926.556    17717.387   -35983.178    1895.1684   -1220.0784    756.60257    72.352179    62.658826    36.097514    220.25512   -311438.15 
     420    472.41471    163657.38    72.353536    72.353537    36.098191          120    18210.037    17942.215   -35654.408    627.54889   -129.84248   -12.548559    72.353536    62.660001    36.098191    165.94815   -311430.45 
     430    479.93566    163666.35    72.354857    72.354858     36.09885          120    17907.998    18385.212   -36597.448    1321.2723   -103.59876    1.9362995    72.354857    62.661145     36.09885   -101.41258   -311448.34 
     440    474.07478    163675.01    72.356134    72.356135    36.099487          120    18194.185    17956.069   -36287.627    1946.2924    285.66972   -717.41055    72.356134    62.662251    36.099487   -45.790918   -311440.62 
     450    478.66784    163683.37    72.357366    72.357367    36.100102          120    17414.767    17891.796    -37223.45    1586.8484    332.09643    -556.3729    72.357366    62.663318    36.100102   -638.96237   -311453.24 
     460    473.77223    163691.29    72.358533    72.358534    36.100684          120    17559.325     17445.18   -36332.032    2317.3363   -42.621787    182.71347    72.358533    62.664329    36.100684   -442.50887   -311447.41 
     470    472.41548    163698.84    72.359645    72.359646    36.101239          120    17886.562    18362.848   -36409.102     1622.414    189.69006    1228.4077    72.359645    62.665292    36.101239   -53.230737   -311448.16 
     480    472.47267    163706.13    72.360719     72.36072    36.101775          120    17716.582     17789.69   -36886.416     1173.112    -382.9386    1851.8397    72.360719    62.666222    36.101775   -460.04796   -311452.25 
     490    473.89721    163713.03    72.361736    72.361737    36.102282          120    16323.889    16673.951   -37481.864    1850.1923   -1081.5073    2151.4655    72.361736    62.667102    36.102282   -1494.6746   -311459.52 
     500    474.14988    163719.26    72.362653    72.362654     36.10274          120    15357.686    15915.131    -37099.05    2225.7619   -955.89046    2073.3782    72.362653    62.667897     36.10274   -1942.0775   -311464.22 
     510    473.08582    163724.67    72.363451    72.363451    36.103138          120    16070.104    16441.707   -38685.071    1576.9035   -589.38889    1089.4458    72.363451    62.668587    36.103138   -2057.7533    -311466.6 
     520    469.99764    163729.23    72.364122    72.364123    36.103473          120    15616.305    16373.013   -39042.703    1003.8096    121.67038     778.4959    72.364122    62.669169    36.103473   -2351.1282   -311464.87 
     530    467.77318    163732.91    72.364665    72.364666    36.103744          120    15628.004    16769.496   -37925.069    1493.1313     146.1991    354.12274    72.364665    62.669639    36.103744   -1842.5228   -311464.72 
     540    470.63923    163735.87    72.365101    72.365101    36.103961          120    15712.942    17688.913   -37809.865    1486.1518   -201.80712   -113.95546    72.365101    62.670016    36.103961   -1469.3366   -311474.13 
     550    471.41484    163738.25    72.365452    72.365453    36.104136          120    16978.039    17687.484   -37884.949    1212.0236   -77.129603   -791.68602    72.365452    62.670321    36.104136   -1073.1419   -311479.96 
     560    466.20279    163740.23    72.365743    72.365744    36.104281          120    17110.318    18329.296   -37577.065    1653.3588   -349.82055    780.93918    72.365743    62.670572    36.104281   -712.48356    -311473.8 
     570    463.18828    163741.91    72.365991    72.365991    36.104405          120    17103.123    18511.759   -37737.108     1958.099   -394.17937    450.53826    72.365991    62.670787    36.104405   -707.40837    -311471.2 
     580    460.29557    163743.32    72.366199    72.366199    36.104509          120    17599.325     18812.13   -37436.935    1783.5973   -798.06952   -16.519864    72.366199    62.670967    36.104509   -341.82657   -311468.72 
     590     470.1247    163744.57    72.366382    72.366382      36.1046          120      17476.6     19010.38   -36969.121    1666.8688   -854.39925    770.61079    72.366382    62.671126      36.1046   -160.71386   -311491.05 
     600    462.19401    163745.73    72.366554    72.366555    36.104686          120    18061.908    18959.688   -35895.451    1462.0483   -571.77772    683.29772    72.366554    62.671275    36.104686    375.38197   -311478.99 
     610    461.19581       163747     72.36674    72.366741    36.104779          120    18462.035    19496.285   -34814.812    1778.2939   -445.42175    1105.7318     72.36674    62.671436    36.104779    1047.8358    -311479.5 
     620    465.18604    163748.55    72.366968    72.366969    36.104893          120    19852.138    19147.273   -34782.422    2115.1026   -199.33766    817.12958    72.366968    62.671634    36.104893     1405.663   -311489.52 
     630    460.76505    163750.52    72.367258    72.367259    36.105037          120    20049.903    19811.791   -34779.028    1772.2135   -163.71301     926.6303    72.367258    62.671885    36.105037    1694.2222    -311483.1 
     640    461.28835    163752.96    72.367619    72.367619    36.105217          120    19650.427    19651.405    -36224.26    1702.5846    506.49199    689.96237    72.367619    62.672197    36.105217    1025.8571   -311486.25 
     650     464.3353    163755.69     72.36802    72.368021    36.105418          120     18855.84    18736.084    -35892.43    1425.6881    261.79004    353.78378     72.36802    62.672545    36.105418    566.49766   -311493.56 
     660    460.38752    163758.55    72.368442    72.368442    36.105628          120    19126.164    19221.086   -36184.115    1608.2515    100.54596    165.25684    72.368442     62.67291    36.105628     721.0452   -311487.46 
     670    458.77761    163761.57    72.368886    72.368887     36.10585          120    18451.122    19173.395   -35621.406    2418.6671   -212.77237    1084.8865    72.368886    62.673295     36.10585    667.70363   -311485.41 
     680    461.63116    163764.73    72.369352    72.369352    36.106082          120    18469.434    18287.045   -34734.569    1640.2471    460.68114    851.83373    72.369352    62.673698    36.106082    673.97008   -311491.52 
     690    459.48298    163767.99    72.369832    72.369833    36.106322          120    18388.023    17210.994   -36641.921     1305.864    602.46571    869.41808    72.369832    62.674114    36.106322   -347.63454    -311487.3 
     700    458.99509    163771.05    72.370283    72.370283    36.106546          120    18096.861    16724.852   -38546.135    2209.3155    85.227218    325.62268    72.370283    62.674504    36.106546   -1241.4741   -311486.71 
     710    460.57449    163773.63    72.370663    72.370664    36.106736          120    17838.174    16449.217   -38750.819    2703.0331   -307.84712    131.93883    72.370663    62.674834    36.106736   -1487.8093   -311488.75 
     720     457.7137    163775.65    72.370961    72.370962    36.106885          120    17100.078    17259.197   -38849.765    1850.6599   -892.28627    272.86752    72.370961    62.675092    36.106885   -1496.8301   -311482.08 
     730    462.78689    163777.15    72.371181    72.371182    36.106995          120    17934.764    17562.787   -37277.522    1870.9176   -679.09966   -232.02547    72.371181    62.675282    36.106995   -593.32334    -311490.9 
     740     460.0485     163778.4    72.371366    72.371367    36.107087          120    18793.133    17277.343   -36061.163    1651.6806   -1033.5254   -624.30858    72.371366    62.675442    36.107087    3.1040848   -311483.74 
     750     460.3615    163779.62    72.371545    72.371545    36.107176          120    18813.129    17270.042   -36136.512    2000.6952   -441.95104   -89.977337    72.371545    62.675597    36.107176    -17.78043   -311482.17 
     760    465.13294    163780.78    72.371717    72.371718    36.107262          120    17752.219    17799.751   -36113.511    2018.5328    27.577584    848.75233    72.371717    62.675746    36.107262   -187.18054   -311488.92 
     770    461.53342    163781.86    72.371876    72.371877    36.107341          120    18131.516    17203.607   -36671.101    1391.2751    642.33625    1811.9555    72.371876    62.675884    36.107341   -445.32617   -311479.39 
     780    467.61097    163782.74    72.372005    72.372005    36.107406          120    17761.979     15983.56   -37814.323    1041.0316    732.89112    1119.8833    72.372005    62.675995    36.107406   -1356.2614    -311487.7 
     790    466.23262    163783.15    72.372065    72.372065    36.107435          120    16967.022     16358.95   -38910.305    1357.5584     397.4239     707.1533    72.372065    62.676047    36.107435   -1861.4443   -311482.65 
     800    464.13726    163782.97    72.372039     72.37204    36.107423          120    17663.408    16599.079   -37251.055    1406.9272    120.58599    723.87838    72.372039    62.676025    36.107423   -996.18937   -311475.71 
     810    468.30511    163782.47    72.371965    72.371966    36.107386          120    18427.206    17541.395   -37260.758    2269.8778    164.02196    1064.9897    72.371965    62.675961    36.107386   -430.71923    -311481.1 
     820     467.9485    163781.84    72.371872    72.371873    36.107339          120    19171.378     17569.25   -36629.802    2508.2424   -311.18234    514.48783    72.371872     62.67588    36.107339     36.94202   -311476.45 
     830    468.02161    163781.22    72.371781    72.371781    36.107294          120    18970.917     17977.53   -36878.195    2348.0202    168.80338    93.423556    72.371781    62.675801    36.107294    23.417562   -311472.52 
     840    469.08265     163780.6     72.37169    72.371691    36.107248          120    17884.318    17732.368   -37021.922    2702.3162     621.7289   -144.78203     72.37169    62.675723    36.107248   -468.41185   -311471.15 
     850    470.16712    163779.84    72.371579    72.371579    36.107193          120    16535.495    17917.317   -37183.473    2205.2874    459.01048   -412.82994    72.371579    62.675626    36.107193   -910.22054   -311470.47 
     860    469.26941    163778.82    72.371428    72.371428    36.107118          120    16581.296    18181.642   -37333.715    1692.4575    481.25713   -49.616292    72.371428    62.675496    36.107118   -856.92554   -311465.04 
     870    475.58127    163777.56    72.371242    72.371243    36.107025          120    17352.537    18637.988   -36011.702    2024.3945    865.74166   -279.80403    72.371242    62.675335    36.107025   -7.0590199   -311473.84 
     880    472.78301     163776.3    72.371056    72.371056    36.106932          120    17240.543    18811.702   -36248.304    2362.9457    468.51885    385.32897    72.371056    62.675174    36.106932   -65.353154   -311465.65 
     890    474.57079    163775.01    72.370867    72.370867    36.106838          120    17628.577    17904.746   -37579.468     2637.943    5.3615239    225.85844    72.370867     62.67501    36.106838   -682.04839    -311465.9 
     900    472.48357    163773.57    72.370655    72.370655    36.106732          120    17841.034    18362.361   -36928.961     2428.094    402.48909     821.0576    72.370655    62.674826    36.106732   -241.85524   -311459.41 
     910    476.16538    163772.08    72.370435    72.370435    36.106622          120    18405.422    17377.573   -36105.528    1932.3811    840.42128    996.77048    72.370435    62.674636    36.106622   -107.51084   -311464.35 
     920    475.09167    163770.62    72.370221    72.370221    36.106515          120    19554.329    17372.143   -35178.035    1447.4316   -563.17883    333.55563    72.370221     62.67445    36.106515    582.81216   -311459.62 
     930    483.87628    163769.39    72.370038    72.370039    36.106424          120    19744.004    17944.999   -35251.541    1879.7589   -777.53749    133.48697    72.370038    62.674292    36.106424    812.48706   -311474.32 
     940    479.15449    163768.44    72.369898    72.369899    36.106354          120    19097.571    18262.454   -36050.911    1690.7956   -32.012544   -723.75566    72.369898    62.674171    36.106354    436.37159   -311463.22 
     950    476.14125    163767.64     72.36978    72.369781    36.106296          120    17971.621    17128.538   -36412.083    2306.4784   -754.62151   -535.10058     72.36978    62.674069    36.106296   -437.30825   -311456.45 
     960     478.9358     163766.7    72.369643    72.369643    36.106227          120    16821.148    16353.421   -37826.793    2684.9697   -1043.5842   -940.72556    72.369643     62.67395    36.106227   -1550.7413   -311460.24 
     970    476.85639     163765.3    72.369437    72.369437    36.106124          120    16419.004      16225.2   -38610.215    2425.6886   -435.71401    -815.0293    72.369437    62.673771    36.106124   -1988.6704   -311455.74 
     980    479.90374     163763.3    72.369142    72.369142    36.105977          120    17336.051    16096.216   -39021.171    2000.4555   -297.49014    77.010985    72.369142    62.673516    36.105977   -1862.9682    -311460.6 
     990    478.27721    163760.76    72.368767    72.368768     36.10579          120    18107.403    17513.548   -38542.229    2569.5808   -531.62268    165.58594    72.368767    62.673191     36.10579   -973.75932   -311457.54 
    1000    474.79373    163757.98    72.368358    72.368358    36.105586          120    19180.892    18784.472   -35936.532    3046.0755   -161.23675     30.05073    72.368358    62.672837    36.105586    676.27746   -311451.39 
    1010    476.21609    163755.44    72.367984    72.367985      36.1054          120    18832.015     18872.75   -34111.971    2314.0846   -215.02701   -70.005308    72.367984    62.672514      36.1054    1197.5982   -311454.41 
    1020    478.91487    163753.33    72.367673    72.367674    36.105245          120    18119.176    18474.397   -34803.031    1821.4292   -737.27346   -336.42714    72.367673    62.672244    36.105245    596.84712   -311460.52 
    1030    478.12592    163751.47    72.367399      72.3674    36.105108          120      19093.8    17597.187   -36247.862    2385.3961   -134.16219   -521.71718    72.367399    62.672007    36.105108    147.70816      -311460 
    1040    479.77418    163749.74    72.367144    72.367144     36.10498          120    19661.191    17377.496   -35689.109    2758.3946   -609.64562   -722.51348    72.367144    62.671786     36.10498    449.85936   -311464.57 
    1050    474.84964    163748.19    72.366916    72.366917    36.104867          120    19579.242    17642.528   -35435.029    2215.7715   -1053.2738   -1966.8404    72.366916    62.671589    36.104867     595.5802   -311456.37 
    1060    478.44141    163746.89    72.366724    72.366725    36.104771          120    20431.607    19047.567   -36694.778    2115.6419   -773.38692   -2302.4196    72.366724    62.671422    36.104771    928.13226   -311464.78 
    1070    480.10823    163745.92    72.366582    72.366582      36.1047          120    20528.728    19705.974   -36871.755    2686.0763   -561.32144   -1815.2866    72.366582    62.671299      36.1047    1120.9822   -311469.95 
    1080    474.89929    163745.31    72.366491    72.366492    36.104655          120    19378.549     18371.27   -36681.685    2754.3543   -395.67903   -944.91868    72.366491     62.67122    36.104655    356.04462   -311462.75 
    1090    478.38832    163744.85    72.366424    72.366425    36.104621          120    19898.688    17111.604   -36226.661    2788.3881   -728.93853   -751.30724    72.366424    62.671162    36.104621    261.21029   -311471.92 
    1100    477.79939     163744.5    72.366372    72.366372    36.104595          120     20436.86    16636.952    -37073.02    2527.9806   -423.45544   -1531.3113    72.366372    62.671117    36.104595    0.2639242   -311473.92 
    1110    476.70704    163744.17    72.366323    72.366323    36.104571          120    20094.008    16552.403   -36783.885    2066.8487   -764.02631    -780.2816    72.366323    62.671075    36.104571   -45.824451   -311475.81 
    1120    476.52976    163743.85    72.366276    72.366277    36.104547          120    19350.051    17193.644   -34648.246    2011.0284   -1361.2188    157.34298    72.366276    62.671034    36.104547     631.8161   -311478.56 
    1130    471.74616    163743.72    72.366257    72.366258    36.104538          120    19189.353    17880.146   -34307.672     1850.125   -1885.2193    168.20812    72.366257    62.671018    36.104538    920.60903   -311472.96 
    1140    472.10234    163743.88    72.366281    72.366282     36.10455          120     19047.18    18827.584   -35604.834    1765.2313   -1787.4946    208.67173    72.366281    62.671038     36.10455    756.64336   -311477.75 
    1150    467.75425    163744.29    72.366341    72.366342     36.10458          120    19372.092    18444.497   -36207.307    1405.9404   -382.32809   -161.10657    72.366341     62.67109     36.10458    536.42757   -311473.29 
    1160    470.72775    163744.88    72.366428    72.366428    36.104623          120    20106.309    18586.398    -36118.56    1438.1767   -51.727084   -412.23052    72.366428    62.671166    36.104623    858.04893   -311482.37 
    1170    471.54957    163745.74    72.366554    72.366555    36.104686          120    20353.866    19090.751   -36173.459    1421.8319   -81.063398   -1892.3372    72.366554    62.671275    36.104686    1090.3859   -311487.49 
    1180    471.21286    163746.94    72.366731    72.366732    36.104774          120    20288.182    19378.925   -36254.113    2160.8928    336.15793   -1429.3273    72.366731    62.671428    36.104774    1137.6648   -311490.97 
    1190     467.5169    163748.49     72.36696     72.36696    36.104889          120    20515.028    18797.491   -35112.867    2077.0446    788.53419   -1553.5199     72.36696    62.671626    36.104889    1399.8843    -311486.9 
    1200    465.73487    163750.43    72.367246    72.367247    36.105031          120    19509.085    18584.428   -35498.034    1986.5843     775.9425   -1013.5884    72.367246    62.671874    36.105031    865.15958   -311486.98 
    1210    465.37793     163752.6    72.367566    72.367567    36.105191          120    18162.749    18883.147   -36448.491    2215.7196    1433.1284   -1296.6722    72.367566    62.672151    36.105191    199.13504   -311489.27 
    1220    467.46997    163754.82    72.367892    72.367892    36.105353          120    19105.413    18681.133   -37589.327    1744.9066    64.092271   -1752.7278    72.367892    62.672433    36.105353    65.739701   -311496.58 
    1230    463.00289       163757    72.368213    72.368214    36.105514          120    19841.777    17321.584   -37283.432    1641.8824    58.226895   -1398.7962    72.368213    62.672712    36.105514   -40.023556   -311490.84 
    1240    465.46974    163759.11    72.368524    72.368524    36.105669          120    19418.265    17079.942   -37401.898    1832.7797       530.68   -267.67118    72.368524    62.672981    36.105669    -301.2305   -311498.61 
    1250    463.82215     163761.1    72.368817    72.368818    36.105815          120    20183.332    17925.251   -37764.998    1627.7088    208.26325    334.09297    72.368817    62.673235    36.105815    114.52839   -311497.96 
    1260     463.5996     163763.1    72.369112    72.369113    36.105962          120    20339.098    18712.676   -36240.539    1987.1009    398.81754    1318.8299    72.369112     62.67349    36.105962    937.07845   -311499.67 
    1270    464.76806    163765.34    72.369442    72.369443    36.106127          120    19913.385    18593.123   -35453.843    2421.5992    13.722614    999.88886    72.369442    62.673776    36.106127    1017.5549   -311504.14 
    1280    460.25413    163767.86    72.369813    72.369814    36.106312          120    19818.767    17944.791   -34965.018    2379.8451    448.78842    679.57316    72.369813    62.674097    36.106312    932.84652   -311497.03 
    1290     462.4571    163770.64    72.370222    72.370223    36.106516          120    19586.398    18395.808   -35026.963    1843.2072    362.49874     544.5619    72.370222    62.674452    36.106516    985.08095   -311502.59 
    1300    464.40681    163773.67    72.370669     72.37067    36.106739          120    19306.309    18413.516   -36246.202    1177.6383    153.98008    46.225682    72.370669    62.674838    36.106739    491.20771   -311507.66 
    1310     462.2744     163776.8    72.371131    72.371131    36.106969          120    19276.456    18093.473   -37132.601    1095.9286    804.22795   -196.44192    72.371131    62.675238    36.106969    79.109369   -311504.31 
    1320    462.88639    163779.91    72.371589    72.371589    36.107198          120    20107.954    17252.704   -36017.147    1237.5663    743.27408   -1069.2585    72.371589    62.675635    36.107198    447.83708   -311506.37 
    1330     458.1544     163783.1    72.372059    72.372059    36.107433          120     19886.13    18850.174   -35802.614    2062.7641   -290.28956   -835.97992    72.372059    62.676042    36.107433    977.89657      -311497 
    1340    461.15064    163786.49    72.372557    72.372558    36.107681          120    18943.293    18382.841   -37298.013     2341.721   -253.80279   -432.61539    72.372557    62.676474    36.107681    9.3738797   -311502.19 
    1350    464.27526    163789.82    72.373049    72.373049    36.107926          120    18196.847    18395.053   -37335.785    2195.6103    26.575384   -791.48145    72.373049    62.676899    36.107926   -247.96201   -311508.16 
    1360    464.25556       163793    72.373516    72.373517     36.10816          120    17832.499    17901.973   -37438.259    1934.8989    205.05248   -242.24138    72.373516    62.677304     36.10816   -567.92908   -311507.14 
    1370    458.55954    163795.97    72.373953    72.373954    36.108378          120    18361.102    18504.344   -35682.265     2098.493    1088.5995    466.35651    72.373953    62.677683    36.108378    394.39336   -311495.26 
    1380    466.24473    163798.97    72.374395    72.374396    36.108598          120    19145.387    17909.666   -34905.366     1545.452    561.24137   -246.05596    72.374395    62.678066    36.108598    716.56243    -311508.6 
    1390    463.83875    163802.14    72.374862    72.374863    36.108831          120    18768.485     17858.14   -34641.575    2519.6419    138.53078   -365.75972    72.374862     62.67847    36.108831    661.68336   -311502.81 
    1400    468.69771    163805.45    72.375349     72.37535    36.109074          120    18700.395    17647.062   -36173.782     2925.476     903.3531   -400.78831    72.375349    62.678892    36.109074    57.891465   -311510.75 
    1410    463.80311     163808.7    72.375828    72.375829    36.109313          120     18908.11    17477.164   -38069.461     3207.887    419.85178   -262.11611    72.375828    62.679307    36.109313   -561.39587   -311499.46 
    1420    460.69689    163811.71    72.376272    72.376272    36.109534          120    18574.568    18036.196   -38331.629    2775.0463    320.92429   -485.80336    72.376272     62.67969    36.109534   -573.62158   -311491.47 
    1430    467.87668    163814.47    72.376678    72.376679    36.109737          120    18280.793    18501.256   -37837.787     2553.762    47.633087   -344.82507    72.376678    62.680043    36.109737   -351.91273   -311502.78 
    1440    464.46389    163817.07    72.377061    72.377061    36.109928          120    19924.704    18538.252   -37307.816    2544.8332    542.98965   -175.94336    72.377061    62.680374    36.109928    385.04673   -311493.27 
    1450     467.2085    163819.69    72.377447    72.377447     36.11012          120    19553.321    17770.263    -37736.19    2325.2291   -186.15614   -470.35513    72.377447    62.680708     36.11012    -137.5353    -311495.3 
    1460    468.53042    163822.23    72.377821    72.377822    36.110307          120    18212.757    18313.041   -37146.643    1766.8692    737.29972    63.175627    72.377821    62.681033    36.110307   -206.94823   -311495.03 
    1470    468.21931    163824.66     72.37818     72.37818    36.110486          120     18665.34    18619.322   -36724.144     1435.196    1105.1297   -71.071598     72.37818    62.681343    36.110486    186.83948   -311491.73 
    1480    468.07067    163827.09    72.378537    72.378537    36.110664          120    17334.965    19232.885   -36003.628    1910.4874    836.30641   -529.63169    72.378537    62.681652    36.110664    188.07422   -311488.85 
    1490     470.0586    163829.52    72.378894    72.378895    36.110843          120    18157.585    18790.308   -36909.118    1928.2184    747.69703   -513.89939    72.378894    62.681962    36.110843    12.924912   -311490.07 
    1500    471.06232    163831.88    72.379243    72.379243    36.111017          120    18090.003    17656.404   -37505.355    1534.0963    518.41976   -156.43646    72.379243    62.682263    36.111017   -586.31583   -311489.12 
    1510    474.50061    163833.99    72.379553    72.379553    36.111171          120    17327.322    16998.208   -38018.641    2297.7557    432.64599   -19.877394    72.379553    62.682532    36.111171    -1231.037   -311492.76 
    1520    468.34266    163835.67    72.379801    72.379802    36.111295          120      17872.9    17569.872   -37861.756    2179.1226   -75.358335   -507.70967    72.379801    62.682747    36.111295   -806.32792   -311478.16 
    1530    476.96436    163837.05    72.380004    72.380005    36.111397          120    17861.115    18305.697   -37498.801    2164.9712    610.29737    -1115.044    72.380004    62.682923    36.111397   -443.99626   -311492.46 
    1540    476.80609    163838.28    72.380185    72.380185    36.111487          120    18867.926    17867.811   -36090.488    2077.5656    882.81764   -1381.8135    72.380185     62.68308    36.111487    215.08305   -311489.41 
    1550    476.42054    163839.55    72.380372    72.380373     36.11158          120     18944.65    18326.549   -35198.285    1593.8809    427.40652   -1214.1813    72.380372    62.683242     36.11158    690.97151   -311486.29 
    1560    478.31669       163841    72.380585    72.380585    36.111686          120    19035.956    17549.503   -35257.649    1944.4246    870.32653   -853.98297    72.380585    62.683426    36.111686    442.60337   -311488.33 
    1570    467.82047    163842.57    72.380817    72.380818    36.111802          120    20026.856    17139.772   -35578.725    1889.5699    641.24096     296.7507    72.380817    62.683627    36.111802    529.30106   -311466.54 
    1580    480.20141    163844.26    72.381065    72.381066    36.111926          120    18401.053    16429.327   -36166.547    1456.6837    146.92401    378.94796    72.381065    62.683842    36.111926    -445.3888   -311488.63 
    1590    475.55359    163845.79    72.381291    72.381291    36.112038          120    18496.859    16855.589   -37467.161    800.86652   -395.67261    -418.4217    72.381291    62.684037    36.112038   -704.90418   -311478.15 
    1600    476.23047    163847.07    72.381479     72.38148    36.112132          120    19979.093    18068.166   -37162.437    834.84228   -869.39037   -39.592396    72.381479      62.6842    36.112132    294.94065   -311478.61 
    1610    471.49111     163848.4    72.381675    72.381676     36.11223          120    20182.409    18623.611   -36278.503    1422.3956   -491.00108   -324.19642    72.381675     62.68437     36.11223    842.50585    -311468.6 
    1620    477.39366    163849.96    72.381905    72.381905    36.112345          120    20066.735    17833.078   -37518.218     1607.041   -531.04494    9.7649198    72.381905    62.684569    36.112345    127.19836   -311479.56 
    1630    483.16131    163851.57    72.382141    72.382142    36.112463          120    19775.905    17658.931   -37081.361    1429.3465    383.01863   -687.53667    72.382141    62.684774    36.112463    117.82479   -311489.94 
    1640    476.54385    163853.17    72.382378    72.382379    36.112581          120     19684.71    17934.623   -36827.704    2065.8811   -48.687147   -1940.1282    72.382378    62.684979    36.112581    263.87623   -311477.57 
    1650    478.35223    163854.84    72.382623    72.382624    36.112703          120     19344.85    18235.364   -36465.627     2268.235    39.533103   -828.42409    72.382623    62.685191    36.112703    371.52898    -311481.2 
    1660    477.17509    163856.61    72.382884    72.382885    36.112833          120    19133.835    18639.434   -35827.841    2287.0852    847.08865   -266.05056    72.382884    62.685417    36.112833    648.47608    -311479.6 
    1670    474.63733    163858.53    72.383167    72.383167    36.112974          120     18576.42    17552.723   -35868.835    1692.6656    736.42643   -239.71534    72.383167    62.685662    36.112974    86.769222   -311475.27 
    1680    478.48573    163860.43    72.383447    72.383448    36.113114          120    17659.184    17306.662    -36447.25    2271.2083    963.57261   -865.81668    72.383447    62.685905    36.113114   -493.80128   -311484.38 
    1690    471.17126    163862.17    72.383702    72.383703    36.113241          120    17748.314    17966.131   -36238.622    3003.6073    125.99975   -759.14697    72.383702    62.686125    36.113241   -174.72567   -311471.39 
    1700    476.77237    163863.77    72.383938    72.383939    36.113359          120    18655.873    16673.064    -36737.54    2976.5488    996.41045    89.475637    72.383938     62.68633    36.113359   -469.53451   -311483.51 
    1710    476.91927    163865.18    72.384145    72.384146    36.113463          120    18530.964     16436.54   -38411.491    2312.0106    638.26233   -46.274521    72.384145    62.686509    36.113463   -1147.9954   -311485.45 
    1720    476.97051    163866.21    72.384298    72.384299    36.113539          120    18495.817    16461.206   -37922.312    2237.1183    63.118711    737.46017    72.384298    62.686642    36.113539   -988.42946    -311487.7 
    1730    479.73156    163866.89    72.384398    72.384398    36.113589          120     19043.33    16371.677   -38740.834    2468.5068   -297.50022   -79.633189    72.384398    62.686728    36.113589    -1108.609   -311495.31 
    1740    472.59775     163867.2    72.384443    72.384444    36.113611          120     18694.77    16927.101   -38219.293    2157.1967   -256.52038   -661.09913    72.384443    62.686768    36.113611   -865.80731   -311483.82 
    1750    472.01067    163867.24    72.384449     72.38445    36.113614          120    17948.318    17628.529   -36169.734    1968.1749   -485.72173   -236.99767    72.384449    62.686772    36.113614   -197.62916   -311485.18 
    1760    470.58853     163867.2    72.384443    72.384443    36.113611          120    18901.922    17697.601   -35956.977    2415.8202   -319.36538   -660.32731    72.384443    62.686767    36.113611    214.18223   -311485.73 
    1770    469.12064    163867.22    72.384446    72.384446    36.113612          120    18927.392    17871.884   -36303.742    2328.0949    594.22653   -94.208722    72.384446    62.686769    36.113612    165.17779   -311486.07 
    1780    477.50744    163867.25    72.384451    72.384451    36.113615          120     18937.34    16551.219    -37497.53    1962.2055    221.95023    11.986863    72.384451    62.686774    36.113615   -669.65696    -311504.7 
    1790    469.72661     163867.1    72.384428    72.384429    36.113604          120    19347.377    16187.517   -37030.013    1504.0625   -589.27744    779.48437    72.384428    62.686754    36.113604   -498.37282   -311492.69 
    1800    468.97664    163866.75    72.384377    72.384377    36.113578          120    18211.952    16351.961   -38357.882    2107.2894   -404.78217    587.91711    72.384377     62.68671    36.113578   -1264.6563   -311494.16 
    1810    465.15528    163866.02    72.384269    72.384269    36.113524          120     18407.86    17318.037    -39278.58    2627.8691   -220.33078    24.359084    72.384269    62.686616    36.113524    -1184.228    -311489.3 
    1820    470.59515    163864.92    72.384108    72.384109    36.113444          120    19643.027    17641.568   -38330.943    2314.0437   -287.45543   -374.91649    72.384108    62.686477    36.113444   -348.78285   -311502.06 
    1830    468.69267    163863.75    72.383936    72.383936    36.113358          120    20071.006    18570.247   -37528.731    2422.1601   -563.00195    -822.5909    72.383936    62.686328    36.113358     370.8408   -311500.95 
    1840    468.00158    163862.69     72.38378     72.38378     36.11328          120    19910.136    17509.592   -37981.288    2199.8756   -1073.0131   -1343.0765     72.38378    62.686193     36.11328   -187.18675   -311502.31 
    1850    466.84895    163861.58    72.383616    72.383617    36.113199          120    19748.245    16091.024    -38321.81     2204.161   -1509.0737   -1247.9188    72.383616    62.686051    36.113199   -827.51373   -311502.79 
    1860    466.36654    163860.25    72.383419     72.38342      36.1131          120    18341.721    16180.637    -37066.53     1726.787   -634.57186   -502.58902    72.383419    62.685881      36.1131   -848.05733   -311503.47 
    1870    462.02917    163858.67    72.383188    72.383188    36.112985          120     18817.94     16310.61   -36597.513    1926.6871   -314.51535   -436.88752    72.383188     62.68568    36.112985   -489.65445   -311497.68 
    1880    463.39138    163856.96    72.382936    72.382936    36.112859          120    19729.039    17181.362   -37366.032    2094.6166   -67.500902   -1085.8095    72.382936    62.685462    36.112859   -151.87728   -311502.32 
    1890    462.51899    163855.25    72.382684    72.382684    36.112733          120    20387.958    18546.301   -36768.828    2271.2063     -150.939    156.58585    72.382684    62.685244    36.112733    721.81017    -311502.5 
    1900    464.28096    163853.79    72.382469     72.38247    36.112626          120    20701.835    18343.353   -35700.597    2811.2387   -29.874353    808.20562    72.382469    62.685058    36.112626     1114.864   -311506.94 
    1910    462.93022    163852.71     72.38231    72.382311    36.112547          120    19424.964    18619.346   -35140.343    2487.9166    137.87241    357.98977     72.38231     62.68492    36.112547    967.98876   -311505.31 
    1920    463.53816    163851.97    72.382201    72.382201    36.112492          120    19263.535    18422.911   -35928.491    2106.2546   -92.844664     -129.206    72.382201    62.684825    36.112492    585.98471    -311507.4 
    1930    466.60771    163851.44    72.382123    72.382123    36.112453          120    19325.792    18353.783   -37015.642    2200.2203    397.04266   -259.42723    72.382123    62.684758    36.112453    221.31099   -311514.09 
    1940    466.68331    163851.02    72.382061    72.382061    36.112423          120    18919.576    18702.767   -36275.932    2361.9531    1024.0319   -716.91454    72.382061    62.684704    36.112423    448.80386   -311514.41 
    1950    462.26889    163850.75    72.382021    72.382022    36.112403          120    19483.723    18089.895   -36641.985    2436.3861    983.21287   -571.23969    72.382021     62.68467    36.112403    310.54438   -311506.01 
    1960    459.58937    163850.61    72.382001    72.382001    36.112393          120    20112.896    17877.665   -36738.266    3040.5357    640.96012   -25.241748    72.382001    62.684652    36.112393    417.43203   -311500.64 
    1970    466.27068    163850.58    72.381996    72.381996     36.11239          120    19162.114    17835.964   -36991.208    3163.3374   -96.941595   -878.92381    72.381996    62.684648     36.11239    2.2896088   -311513.48 
    1980    464.81905    163850.57    72.381994    72.381995    36.112389          120    19153.681    18400.757   -36938.476    2660.1858   -121.23473    193.56928    72.381994    62.684647    36.112389    205.32056   -311509.92 
    1990    466.06203     163850.6    72.381999    72.381999    36.112392          120    19105.921    17558.194   -36964.321    2080.6951    121.64911    238.48963    72.381999     62.68465    36.112392   -100.06856   -311511.27 
    2000    462.41807    163850.61    72.382001    72.382001    36.112393          120    19526.662    17003.981   -36700.043    1765.8479   -163.94574    30.489044    72.382001    62.684652    36.112393   -56.466565   -311503.21 
    2010     467.3868    163850.63    72.382004    72.382005    36.112394          120    19468.936    17953.575   -35505.972    882.69007   -24.321809    476.62481    72.382004    62.684655    36.112394    638.84616   -311511.47 
    2020    469.16779    163850.84    72.382035    72.382035     36.11241          120    20140.649    17300.787   -36357.112    895.89356   -351.30446   -135.99595    72.382035    62.684681     36.11241    361.44124   -311513.32 
    2030    463.41611    163851.16    72.382081    72.382082    36.112433          120     18282.79    16747.481   -36143.567     821.9337    540.83123   -664.39496    72.382081    62.684722    36.112433   -371.09852    -311501.3 
    2040    466.43293    163851.38    72.382114    72.382115    36.112449          120    18886.218    17229.811    -36210.26    1668.3435    1066.2648   -495.40576    72.382114     62.68475    36.112449   -31.410515   -311505.39 
    2050     464.6152    163851.57    72.382142    72.382143    36.112463          120    18921.887    17393.291   -36772.894    1939.8302     536.3675   -1118.1123    72.382142    62.684775    36.112463   -152.57235   -311500.83 
    2060     462.4659    163851.71    72.382162    72.382163    36.112473          120    18941.109    17649.667   -37040.711    1782.6656    437.39341   -1221.8664    72.382162    62.684792    36.112473   -149.97836   -311494.65 
    2070    470.02543    163851.78    72.382173    72.382174    36.112479          120    19100.287    17305.777   -37136.853    2014.9284    698.27382   -493.25919    72.382173    62.684801    36.112479    -243.5962   -311507.18 
    2080    468.73196     163851.8    72.382176    72.382177     36.11248          120    20035.061    17317.939   -36650.375    1833.4327    369.30131   -702.39018    72.382176    62.684804     36.11248    234.20801   -311502.11 
    2090    467.24797    163851.85    72.382184    72.382184    36.112484          120    20169.223    16587.327   -37374.643    1831.3767    545.24649   -848.20681    72.382184     62.68481    36.112484    -206.0309   -311496.87 
    2100    467.08633    163851.87    72.382187    72.382187    36.112485          120    20208.814    16878.617   -36125.537    1416.6481    206.26844   -639.48917    72.382187    62.684813    36.112485    320.63152   -311494.19 
    2110    470.31464    163852.01    72.382207    72.382208    36.112496          120    21378.798    17315.175   -35566.006    1615.4801    47.586993   -647.47186    72.382207    62.684831    36.112496    1042.6557   -311497.91 
    2120    472.99498    163852.46    72.382273    72.382274    36.112529          120    20914.039    18028.951   -36575.166    1936.0879    205.48785    -1087.287    72.382273    62.684888    36.112529    789.27458   -311500.17 
    2130    468.20523    163853.14    72.382374    72.382374    36.112579          120    19745.216    17046.918   -36828.046     2114.918     483.5179   -426.25317    72.382374    62.684975    36.112579   -11.970738   -311488.77 
    2140    473.75735    163853.81    72.382472    72.382473    36.112628          120    18997.485      16304.8   -37468.779    1885.7122    174.12339   -502.73316    72.382472     62.68506    36.112628   -722.16453    -311497.7 
    2150    470.28191    163854.27     72.38254    72.382541    36.112662          120     18881.52    17180.478    -37167.16    1895.5138    4.9906633    -510.5017     72.38254    62.685119    36.112662   -368.38747   -311488.85 
    2160    476.06883    163854.58    72.382586    72.382586    36.112684          120     18780.24    17562.413   -37550.011     2020.715    390.36334   -929.48275    72.382586    62.685159    36.112684   -402.45298   -311497.66 
    2170    476.02992     163854.8    72.382618    72.382618      36.1127          120    19870.046    17898.121   -36152.079    2097.1388    863.07217    -1279.691    72.382618    62.685186      36.1127    538.69612   -311495.43 
    2180    474.39723    163855.16    72.382671    72.382672    36.112727          120    20246.576     17349.84   -35873.003    1555.9597     333.5255   -521.73793    72.382671    62.685233    36.112727     574.4712   -311490.93 
    2190    472.55027    163855.74    72.382756    72.382757     36.11277          120    20298.217    17557.536   -33955.903     2032.095   -251.78468   -750.57928    72.382756    62.685307     36.11277      1299.95   -311485.69 
    2200    477.24001    163856.68    72.382895    72.382895    36.112839          120    20043.129    18370.498    -35322.01    1591.6014   -359.77068    -189.7748    72.382895    62.685426    36.112839     1030.539   -311492.94 
    2210    476.02261    163857.96    72.383083    72.383084    36.112933          120     19669.35    18911.448   -35919.861    1590.4467   -104.37093   -236.97466    72.383083     62.68559    36.112933    886.97917   -311489.96 
    2220    477.17761    163859.53    72.383314    72.383314    36.113048          120    20148.056    18285.503   -36540.992    2013.4653    27.614492   -646.45624    72.383314    62.685789    36.113048    630.85553   -311491.25 
    2230    475.46781    163861.32    72.383577    72.383578    36.113179          120    20336.162        18978   -35272.634    2276.2172   -427.98132   -297.35274    72.383577    62.686017    36.113179    1347.1759   -311487.01 
    2240    473.60297    163863.51    72.383901    72.383901    36.113341          120    21863.079    18143.732   -34425.586    2600.5815   -437.78072   -441.07641    72.383901    62.686297    36.113341    1860.4084   -311483.21 
    2250    475.06387    163866.22      72.3843      72.3843     36.11354          120    21242.308     17374.43   -35983.053    2411.6207   -939.41639   -842.13443      72.3843    62.686643     36.11354     877.8948   -311484.93 
    2260     476.3719     163869.2    72.384737    72.384738    36.113758          120    19805.304    17797.024   -36163.089     1396.733   -858.04558   -604.60848    72.384737    62.687022    36.113758    479.74636   -311487.37 
[...]
   99200     469.4605    164454.01    72.470743    72.470744    36.156668          120    20544.367    17854.221   -38245.966     1653.971   -2890.4486   -331.95399    72.470743    62.761505    36.156668    50.873994   -311583.26 
   99210    473.71553    164456.43      72.4711      72.4711    36.156845          120    20495.986    17546.026   -39240.141    1984.8631    -2388.717    82.350128      72.4711    62.761814    36.156845   -399.37635   -311591.92 
   99220    474.13491    164458.73    72.471437    72.471437    36.157014          120    20534.203    17033.589   -38816.448    1817.5508   -3183.1004   -594.62477    72.471437    62.762106    36.157014   -416.21864   -311593.44 
   99230    470.43467    164460.87    72.471751    72.471752    36.157171          120    20853.348    16719.701   -38545.304    2074.3292   -3126.5348   -66.228124    72.471751    62.762378    36.157171   -324.08483   -311586.68 
   99240    467.63807    164462.91     72.47205    72.472051     36.15732          120    21077.525    17303.712   -38361.495    1472.2222   -2737.7312     1021.407     72.47205    62.762637     36.15732    6.5808367   -311582.94 
   99250    473.88666    164464.93    72.472347    72.472348    36.157468          120    20842.916     16744.05   -37485.873    1010.8511   -1307.0394    1149.0968    72.472347    62.762894    36.157468    33.697795   -311595.85 
   99260    471.15932    164466.99     72.47265    72.472651    36.157619          120    19997.436    17548.441   -36924.902    1464.0612   -2088.4544    696.16023     72.47265    62.763157    36.157619    206.99155   -311591.55 
   99270    471.62165    164469.12    72.472963    72.472964    36.157775          120    20003.434    16845.372   -36816.133     999.8457   -1923.5149     502.9975    72.472963    62.763428    36.157775    10.890838   -311593.54 
   99280    472.14762    164471.25    72.473276    72.473276    36.157931          120    20735.736    16605.306   -37239.345    1881.7758   -1808.0524    220.51192    72.473276    62.763699    36.157931    33.899052   -311595.78 
   99290    467.79614    164473.36    72.473585    72.473586    36.158085          120    20273.824    16301.832   -38270.988     1966.556   -2132.3178    80.255685    72.473585    62.763966    36.158085   -565.11082   -311588.54 
   99300     469.2026     164475.3    72.473871    72.473871    36.158228          120    20400.441    16731.961   -38091.926    1054.0677   -1983.7424    226.34969    72.473871    62.764214    36.158228   -319.84114   -311591.84 
   99310    467.38651    164477.15    72.474143    72.474144    36.158364          120    21111.349    17021.689   -36948.182    1111.0087   -1953.7179    491.65749    72.474143     62.76445    36.158364    394.95203   -311589.36 
   99320    470.67131    164479.11    72.474431    72.474431    36.158507          120    20668.914    17721.667   -37384.108    1125.5041   -2674.7686    329.96731    72.474431    62.764699    36.158507      335.491   -311596.95 
   99330    467.69988    164481.18    72.474734    72.474735    36.158659          120    20226.057    17882.649   -37499.766    1066.1155    -3190.267    796.12652    72.474734    62.764962    36.158659    202.97972   -311592.26 
   99340    470.72128    164483.31    72.475047    72.475048    36.158815          120    20241.961    17362.127   -36906.452    1392.7163   -2985.8878    1089.0877    72.475047    62.765233    36.158815    232.54522   -311598.59 
   99350    466.69464    164485.53    72.475374    72.475374    36.158978          120    20728.984    17401.577   -36531.287     1745.144   -2411.9539    1863.7069    72.475374    62.765516    36.158978    533.09115   -311591.67 
   99360    473.09037    164487.92    72.475724    72.475724    36.159152          120    20863.493    17213.104   -36577.181    1921.1336   -1457.3454    1101.2291    72.475724    62.765819    36.159152    499.80543   -311605.02 
   99370    470.19235    164490.49    72.476102    72.476103    36.159341          120    22173.967    16809.924   -36352.446    1493.2952    -1773.418      177.222    72.476102    62.766146    36.159341    877.14845   -311599.94 
   99380    467.13863    164493.35    72.476521    72.476522     36.15955          120    21485.375    16989.947   -36362.036    840.19772   -1216.6303    730.54073    72.476521    62.766509     36.15955    704.42872   -311594.94 
   99390    462.67894    164496.44    72.476976    72.476976    36.159777          120    21496.856    17428.669   -37242.349    1550.9739   -886.25495    559.76491    72.476976    62.766903    36.159777    561.05866   -311587.14 
   99400    468.43854    164499.68    72.477451    72.477451    36.160014          120    21163.788    16345.502    -38489.76    2244.9386   -1331.2079    -92.62503    72.477451    62.767314    36.160014   -326.82353   -311599.18 
   99410    467.74225    164502.85    72.477917    72.477917    36.160246          120    21184.408    16257.273   -37241.453    2087.0674   -2037.1162    463.77973    72.477917    62.767718    36.160246    66.742772   -311597.85 
   99420    468.96725    164506.02    72.478382    72.478382    36.160479          120    20483.282    16226.089   -37138.318    2340.4531   -3504.9727    799.80757    72.478382    62.768121    36.160479   -142.98256   -311600.43 
   99430     464.8724    164509.16    72.478843    72.478844    36.160709          120    21010.609    15930.599   -36588.179    2182.3105   -3300.3319   -38.134883    72.478843     62.76852    36.160709    117.67636   -311593.18 
   99440    468.30011    164512.31    72.479306    72.479306    36.160939          120     19916.03     16297.93   -37984.784    1391.2613   -2228.8119   -348.46297    72.479306    62.768921    36.160939   -590.27456   -311600.31 
   99450    468.28738    164515.28    72.479743    72.479743    36.161157          120    19766.735    16415.705   -38689.968    984.81042   -1612.8829    900.53664    72.479743    62.769299    36.161157   -835.84276   -311599.67 
   99460    467.85999    164518.02    72.480145    72.480146    36.161358          120    20071.187     17166.58   -37623.145    1427.0169   -1557.8661    1509.8383    72.480145    62.769648    36.161358   -128.45936   -311599.12 
   99470    469.33602    164520.71     72.48054     72.48054    36.161555          120    20716.572    17003.896   -37905.475    1478.4654   -743.61693     503.7947     72.48054    62.769989    36.161555   -61.668931   -311602.05 
   99480    465.41381    164523.35    72.480927    72.480928    36.161748          120    20158.158    16969.432   -38907.969    1087.1632    -384.4493    254.38297    72.480927    62.770325    36.161748   -593.45954   -311593.52 
   99490    467.25121    164525.76    72.481282    72.481282    36.161925          120    19360.789    15547.379   -40187.333    1324.5952   -1585.8361    177.33607    72.481282    62.770632    36.161925   -1759.7212   -311596.29 
   99500    469.25254     164527.6    72.481551    72.481552     36.16206          120    18779.611    14850.384   -40380.068    979.87351   -2997.3663    166.19768    72.481551    62.770865     36.16206   -2250.0244   -311599.37 
   99510    468.40339     164528.7    72.481714    72.481714    36.162141          120    18961.808    16367.201   -40188.092    1365.9726    -2316.968    967.00637    72.481714    62.771006    36.162141   -1619.6942   -311597.37 
   99520    470.60948    164529.29      72.4818      72.4818    36.162184          120    20741.924    17296.616   -39237.553    1506.2162   -2160.2066    1142.7709      72.4818     62.77108    36.162184   -399.67094   -311600.96 
   99530    470.33584    164529.73    72.481865    72.481866    36.162216          120    20868.358    17929.886   -38042.717    1544.8984   -2244.9347    898.79288    72.481865    62.771137    36.162216    251.84232   -311599.48 
   99540    471.63258    164530.27    72.481944    72.481945    36.162256          120    20906.224    17255.118   -37722.362    1588.7128   -1672.6062    752.30481    72.481944    62.771206    36.162256    146.32686   -311600.64 
   99550    464.35171    164530.87    72.482031    72.482032    36.162299          120     20391.74    15784.553   -37251.278    1528.0714   -1769.3077    112.99083    72.482031    62.771281    36.162299   -358.32828   -311585.84 
   99560    471.78625    164531.34    72.482101    72.482101    36.162334          120    19639.593    16449.608   -38298.091    1644.8692   -2493.4135    799.86826    72.482101    62.771341    36.162334   -736.29657   -311598.68 
   99570    471.51581    164531.57    72.482134    72.482135    36.162351          120    19091.281     17328.21   -38889.006    1664.4434   -2886.4826    975.43303    72.482134     62.77137    36.162351   -823.17153   -311595.99 
   99580    470.36448    164531.54     72.48213     72.48213    36.162348          120     19957.97    17860.902   -38850.217     1469.031   -2773.9484    1197.2389     72.48213    62.771366    36.162348   -343.78173   -311591.32 
   99590    466.36331    164531.37    72.482106    72.482106    36.162336          120    19989.483    17946.051   -38364.455    1416.4657   -2678.3581    1757.0102    72.482106    62.771345    36.162336   -142.97337   -311581.69 
   99600    469.56469    164531.12    72.482069     72.48207    36.162318          120    19782.979    17506.695   -38968.404     1102.533   -3334.4297    2465.8298    72.482069    62.771314    36.162318   -559.57687   -311585.55 
   99610    473.62231    164530.71    72.482008    72.482009    36.162288          120    20623.472    17596.149   -38458.015    839.13179   -2968.2491    1557.6033    72.482008    62.771261    36.162288     -79.4649   -311591.31 
   99620    476.30051    164530.25    72.481942    72.481942    36.162254          120    21152.637    17613.848   -37701.568    861.05065   -1632.2628    1122.2353    72.481942    62.771203    36.162254    354.97239   -311594.85 
   99630    472.51083    164529.92    72.481892    72.481892     36.16223          120    20408.348    18337.131   -37895.696    899.89289   -1791.0721    1117.7903    72.481892     62.77116     36.16223    283.26103   -311586.37 
   99640    471.71925    164529.69    72.481859     72.48186    36.162213          120    19751.462    18290.141   -36654.281     1368.774   -1707.0138    147.35195    72.481859    62.771132    36.162213    462.44053   -311583.51 
   99650    470.53622     164529.6    72.481845    72.481846    36.162206          120    20030.193    17568.298     -36699.1    1543.0757   -1358.5439   -448.00268    72.481845     62.77112    36.162206    299.79719   -311580.29 
   99660    474.43985     164529.6    72.481846    72.481846    36.162207          120     21476.17    16820.782   -37096.002    1757.9785   -1804.0033    487.62703    72.481846     62.77112    36.162207    400.31665   -311587.67 
   99670    473.94395    164529.73    72.481865    72.481866    36.162216          120    21459.593    16569.834    -37213.99    1687.3344   -3061.7033     103.7436    72.481865    62.771137    36.162216    271.81231   -311586.03 
   99680    475.46941    164529.94    72.481896    72.481896    36.162232          120    20901.003     16753.98   -38106.597    1665.0093   -3327.1718    102.85843    72.481896    62.771164    36.162232   -150.53795   -311589.35 
   99690    473.96035    164530.12    72.481921    72.481922    36.162244          120    21075.604    16442.803   -38171.363    1806.6665   -3097.2886    965.33085    72.481921    62.771186    36.162244   -217.65192    -311586.1 
   99700    471.68342    164530.22    72.481937    72.481937    36.162252          120     20374.14    17354.876   -38426.465    1557.5908   -1434.1773    1319.8776    72.481937    62.771199    36.162252   -232.48304   -311581.54 
   99710    471.80311    164530.24     72.48194     72.48194    36.162253          120    20653.675     17094.01   -38079.204    2097.7864   -1850.8707    1549.5308     72.48194    62.771202    36.162253   -110.50651   -311582.07 
   99720    471.61928    164530.22    72.481936    72.481937    36.162252          120     20810.66    17631.274   -37875.433    2053.4435     -1923.49    2272.9137    72.481936    62.771199    36.162252    188.83405   -311581.94 
   99730    474.79439    164530.24     72.48194     72.48194    36.162254          120    20203.827    18168.187   -37425.138    2374.2233   -2357.2729       1465.5     72.48194    62.771202    36.162254    315.62558   -311589.01 
   99740    473.07191    164530.41    72.481964    72.481964    36.162266          120    21408.997    18363.953    -36712.96    2022.9619   -1725.9037    178.23596    72.481964    62.771223    36.162266    1019.9969   -311586.22 
   99750    474.60285    164530.88    72.482033    72.482034      36.1623          120    20694.323     18098.43   -37309.522    1563.9781   -1381.6786   -340.68408    72.482033    62.771283      36.1623    494.41053   -311589.88 
   99760    473.63772     164531.5    72.482125    72.482125    36.162346          120    20025.322    17321.445    -38689.27    1504.9577   -2588.2417    669.19387    72.482125    62.771362    36.162346   -447.50119   -311589.17 
   99770    475.41584    164531.95    72.482191    72.482191    36.162379          120    19311.653    16400.069   -40204.887    2194.7274   -2211.7678    628.72246    72.482191    62.771419    36.162379   -1497.7217   -311593.11 
   99780    468.35788    164531.94    72.482189    72.482189    36.162378          120    19817.225    16669.036   -39852.456     2174.946   -2111.3849     476.0904    72.482189    62.771417    36.162378   -1122.0652   -311580.32 
   99790    472.15536    164531.56    72.482133    72.482133     36.16235          120    20096.302    18085.811   -38210.529    1825.9638   -1509.1736    760.58388    72.482133    62.771369     36.16235    -9.472061   -311588.68 
   99800    473.56832    164531.11    72.482067    72.482068    36.162317          120    19947.147    18353.188   -38799.477    1305.1755   -1824.5404    554.08725    72.482067    62.771312    36.162317   -166.38084   -311592.34 
   99810    473.75414    164530.62    72.481996    72.481996    36.162282          120    19963.649    17353.078    -38415.03    1218.8591   -1979.6588    886.66364    72.481996     62.77125    36.162282    -366.1008   -311593.86 
   99820    469.24721    164530.06    72.481912    72.481913     36.16224          120    19635.205    17716.342   -37008.913    1416.7872   -893.35531    1549.2834    72.481912    62.771178     36.16224    114.21115    -311586.4 
   99830    472.26273    164529.49    72.481829     72.48183    36.162199          120    19953.735    16666.425   -37654.038    1883.3271   -1369.1352    820.35548    72.481829    62.771106    36.162199   -344.62623   -311593.47 
   99840    469.75804    164528.82    72.481731    72.481732     36.16215          120    20029.301    16554.732   -38594.075      2018.45   -1200.3359    3.3695779    72.481731    62.771021     36.16215   -670.01394   -311589.83 
   99850    473.43695     164527.9    72.481595    72.481596    36.162082          120    19055.956    16718.427   -40097.122    1806.6317   -2269.9336   -172.71895    72.481595    62.770903    36.162082   -1440.9131   -311597.49 
   99860    468.83742    164526.52    72.481393    72.481394    36.161981          120    19004.161    17189.323    -40348.76    1599.4243   -2568.9482    759.64734    72.481393    62.770728    36.161981    -1385.092   -311589.82 
   99870    468.61455    164524.64    72.481117    72.481117    36.161843          120    18784.798    16086.257   -40992.092    1519.3739      -2791.6    893.44145    72.481117    62.770489    36.161843   -2040.3457   -311589.92 
   99880    469.98862    164522.13    72.480748    72.480748    36.161659          120    19429.791    16862.675   -40247.667     1869.376   -2556.1207    456.99144    72.480748    62.770169    36.161659   -1318.4003   -311592.96 
   99890    471.58151    164519.17    72.480314    72.480314    36.161442          120    20551.708    17178.151   -38534.794    1945.4664   -2178.2884    313.45898    72.480314    62.769794    36.161442    -268.3117   -311596.91 
   99900    472.99314    164516.13    72.479868    72.479868     36.16122          120     21629.28    17551.771   -36540.995     2179.054   -1969.4782    632.90731    72.479868    62.769407     36.16122    880.01863   -311600.53 
   99910    463.92958    164513.33    72.479456    72.479457    36.161014          120    20160.091    18037.111   -36679.892    1922.4192   -1086.5038    630.66033    72.479456    62.769051    36.161014    505.77021   -311583.62 
   99920    468.43796    164510.71    72.479071    72.479071    36.160822          120    20456.063    17852.142    -37191.48    1446.3772   -1022.0932    439.29144    72.479071    62.768717    36.160822    372.24174   -311592.85 
   99930    468.60903    164508.22    72.478706    72.478707     36.16064          120    21036.358    18088.813    -37460.19    1494.5869   -1819.1322    138.31588    72.478706    62.768401     36.16064    554.99371    -311593.4 
   99940    471.52879    164505.91    72.478367    72.478368    36.160471          120    20802.753    18038.691    -37528.25     1850.177   -1561.7889   -367.72149    72.478367    62.768108    36.160471     437.7313   -311599.49 
   99950    470.49543    164503.75    72.478049     72.47805    36.160313          120    20019.559    17392.678   -37282.347    2141.7072   -1446.1585   -25.238041    72.478049    62.767833    36.160313    43.296499   -311597.41 
   99960    471.33533    164501.59    72.477731    72.477732    36.160154          120    20087.214    16795.707   -38674.723    2512.8756   -2548.4261   -28.129708    72.477731    62.767557    36.160154   -597.26728   -311599.58 
   99970    468.49759    164499.25    72.477388    72.477389    36.159983          120    20051.398     17398.89   -38773.616      1796.86   -2738.7582    1124.0734    72.477388     62.76726    36.159983   -441.10945   -311594.61 
   99980    471.13853    164496.75    72.477021    72.477021    36.159799          120    19022.378    17475.961   -38728.442    1310.9115   -3068.5545    1074.8578    72.477021    62.766942    36.159799   -743.36762   -311599.16 
   99990    467.78974    164494.02     72.47662     72.47662    36.159599          120    19123.602    17413.057   -37550.142    1310.7824   -2576.6826     902.1302     72.47662    62.766595    36.159599   -337.82772   -311593.34 
  100000    469.09166    164491.16      72.4762      72.4762     36.15939          120    20171.497    17906.945   -37780.185    2222.3078   -2411.9006    805.39744      72.4762    62.766231     36.15939    99.418839   -311596.51 
Loop time of 31345.6 on 1 procs for 100000 steps with 14848 atoms

Performance: 0.276 ns/day, 87.071 hours/ns, 3.190 timesteps/s
99.0% CPU use with 1 MPI tasks x no OpenMP threads

MPI task timing breakdown:
Section |  min time  |  avg time  |  max time  |%varavg| %total
---------------------------------------------------------------
Pair    | 24841      | 24841      | 24841      |   0.0 | 79.25
Bond    | 0.023941   | 0.023941   | 0.023941   |   0.0 |  0.00
Kspace  | 1129.6     | 1129.6     | 1129.6     |   0.0 |  3.60
Neigh   | 4683.1     | 4683.1     | 4683.1     |   0.0 | 14.94
Comm    | 45.036     | 45.036     | 45.036     |   0.0 |  0.14
Output  | 1.0828     | 1.0828     | 1.0828     |   0.0 |  0.00
Modify  | 633.91     | 633.91     | 633.91     |   0.0 |  2.02
Other   |            | 11.49      |            |       |  0.04

Nlocal:    14848 ave 14848 max 14848 min
Histogram: 1 0 0 0 0 0 0 0 0 0
Nghost:    46677 ave 46677 max 46677 min
Histogram: 1 0 0 0 0 0 0 0 0 0
Neighs:    1.00035e+07 ave 1.00035e+07 max 1.00035e+07 min
Histogram: 1 0 0 0 0 0 0 0 0 0

Total # of neighbors = 10003484
Ave neighs/atom = 673.726
Ave special neighs/atom = 0
Neighbor list builds = 16597
Dangerous builds = 0
 
All done!
Total wall time: 8:47:44
