LAMMPS (16 Mar 2018)
Reading data file ...
  triclinic box = (0 0 0) to (9.208 7.97436 18.376) with tilt (-4.604 0 0)
  1 by 1 by 1 MPI processor grid
  reading atoms ...
  116 atoms
Finding 1-2 1-3 1-4 neighbors ...
  special bond factors lj:   0          0          0         
  special bond factors coul: 0          0          0         
  0 = max # of 1-2 neighbors
  0 = max # of 1-3 neighbors
  0 = max # of 1-4 neighbors
  1 = max # of special neighbors
Replicating atoms ...
  triclinic box = (0 0 0) to (73.664 63.7949 36.752) with tilt (-36.832 0 0)
  1 by 1 by 1 MPI processor grid
  14848 atoms
Finding 1-2 1-3 1-4 neighbors ...
  special bond factors lj:   0          0          0         
  special bond factors coul: 0          0          0         
  0 = max # of 1-2 neighbors
  0 = max # of 1-3 neighbors
  0 = max # of 1-4 neighbors
  1 = max # of special neighbors
  Time spent = 0.00364017 secs
PPPM initialization ...
WARNING: System is not charge neutral, net charge = -0.2048 (../kspace.cpp:302)
  using 12-bit tables for long-range coulomb (../kspace.cpp:321)
  G vector (1/distance) = 0.201681
  grid = 36 50 24
  stencil order = 5
  estimated absolute RMS force accuracy = 0.00105653
  estimated relative force accuracy = 7.33721e-05
  using double precision FFTs
  3d grid and FFT values/proc = 65395 43200
Neighbor list info ...
  update every 1 steps, delay 0 steps, check yes
  max neighbors/atom: 2000, page size: 100000
  master list distance cutoff = 15.3
  ghost atom cutoff = 15.3
  binsize = 7.65, bins = 15 9 5
  3 neighbor lists, perpetual/occasional/extra = 3 0 0
  (1) pair morse, perpetual
      attributes: half, newton on
      pair build: half/bin/newton/tri
      stencil: half/bin/3d/newton/tri
      bin: standard
  (2) pair buck, perpetual, copy from (1)
      attributes: half, newton on
      pair build: copy
      stencil: none
      bin: none
  (3) pair lj/cut/coul/long, perpetual, copy from (1)
      attributes: half, newton on
      pair build: copy
      stencil: none
      bin: none
Setting up Verlet run ...
  Unit style    : metal
  Current step  : 0
  Time step     : 0.001
Per MPI rank memory allocation (min/avg/max) = 145.7 | 145.7 | 145.7 Mbytes
Step Temp Volume Cella Cellb Cellc CellGamma Pxx Pyy Pzz Pxy Pxz Pyz Lx Ly Lz Press PotEng 
       0          490    172711.88       73.664    73.664001       36.752          120   -205658.93   -205742.86   -276717.11    39.881558   -12.460972      16.6646       73.664    63.794896       36.752   -229372.97   -309191.56 
      10    449.68004    172671.31    73.658232    73.658232    36.749122          120   -204441.36   -204527.09   -251290.34    138.02211   -34.388225   -222.66111    73.658232      63.7899    36.749122   -220086.27   -309136.54 
      20    735.98887    172552.84    73.641382    73.641383    36.740716          120   -197047.69   -196783.82   -190157.65    50.808167    -282.2481   -489.19969    73.641382    63.775308    36.740716   -194663.05   -309708.29 
      30    782.83187     172366.5    73.614865    73.614865    36.727486          120   -162198.26   -162013.92   -110847.21   -176.02334   -852.41754   -526.04897    73.614865    63.752343    36.727486    -145019.8   -309833.51 
      40    561.34769    172131.33     73.58137     73.58137    36.710775          120   -112244.04   -112719.29   -30843.103   -957.67809   -1164.7577   -532.84204     73.58137    63.723336    36.710775   -85268.813   -309430.42 
      50    659.98008    171869.99    73.544113    73.544114    36.692187          120   -76512.933   -77503.449   -6211.1444   -597.02639   -1032.7449   -645.94233    73.544113    63.691071    36.692187   -53409.175   -309628.79 
      60    926.73155    171596.92    73.505143    73.505143    36.672744          120   -61638.195    -61326.87   -50282.211   -946.96399   -1895.3583   -558.62601    73.505143    63.657322    36.672744   -57749.092   -310157.63 
      70    1072.4237     171315.3    73.464909     73.46491    36.652671          120   -53410.889   -53615.077    -114086.1   -1904.1078   -2472.9645   -769.41563    73.464909    63.622478    36.652671   -73704.023   -310478.51 
      80    944.91545    171024.18    73.423271    73.423272    36.631897          120   -49455.623   -51117.568   -159109.22   -1929.6946   -2520.7522   -31.109443    73.423271    63.586419    36.631897   -86560.804   -310281.45 
      90    701.58557    170724.01    73.380291    73.380292    36.610454          120   -45817.279   -46478.392   -171618.88   -2062.0411   -2989.6965   -970.56723    73.380291    63.549197    36.610454   -87971.519   -309854.32 
     100    719.49333    170419.58    73.336649     73.33665     36.58868          120   -29643.171   -29838.818    -150402.6   -1908.3588   -2712.0358   -1299.2374    73.336649    63.511402     36.58868   -69961.531   -309922.64 
     110    879.66948    170121.06    73.293802    73.293803    36.567303          120   -9665.4747   -10222.199   -109717.14   -1919.5274   -1165.6685   -1671.3049    73.293802    63.474295    36.567303   -43201.606   -310268.35 
     120    900.63239    169839.77    73.253384    73.253384    36.547138          120    984.53397    905.59436   -62695.317   -1864.0805   -663.21463   -1701.1775    73.253384    63.439292    36.547138   -20268.396   -310349.98 
     130     808.6718     169583.5    73.216521    73.216522    36.528746          120    921.07268    2052.7525   -25669.462   -1510.1727   -841.49052     -1833.98    73.216521    63.407368    36.528746   -7565.2122   -310210.91 
     140    759.66544    169354.55    73.183558    73.183559    36.512301          120   -3195.2053    -3309.353   -12210.467   -870.39696   -854.13329    -1981.704    73.183558    63.378821    36.512301   -6238.3418   -310147.63 
     150    797.28755    169150.19    73.154109    73.154109    36.497608          120   -10586.065   -9776.1511   -30888.056   -1737.5231   -457.02132   -1683.3581    73.154109    63.353317    36.497608   -17083.424   -310250.73 
     160    858.28587    168963.63    73.127205    73.127206    36.484186          120   -19537.945   -18624.986   -63298.421   -1467.6818   -1316.6522   -2175.9401    73.127205    63.330018    36.484186   -33820.451   -310406.45 
     170    857.85111    168786.86    73.101693    73.101694    36.471457          120    -24044.17   -22947.797   -92583.046   -1029.3984   -1976.9096   -2091.0422    73.101693    63.307924    36.471457   -46525.004    -310447.9 
     180    790.19961    168613.73    73.076691    73.076692    36.458983          120   -22899.923   -21031.437   -111309.15   -1197.5813    -2403.785   -2205.1882    73.076691    63.286272    36.458983   -51746.836   -310359.97 
     190    758.71002    168441.12    73.051746    73.051747    36.446538          120   -19118.495    -17168.78   -112461.31   -747.43252   -2456.7727    -2239.009    73.051746    63.264669    36.446538   -49582.863   -310337.94 
     200    787.96749    168268.61    73.026798    73.026799    36.434091          120    -14788.19   -14430.765   -96735.957   -1228.3476   -2058.1255   -2070.5747    73.026798    63.243063    36.434091   -41984.971   -310431.45 
     210    807.20563     168097.6    73.002052    73.002053    36.421745          120   -10276.405   -10345.925   -75390.132   -1530.3509   -1920.3525    -1712.815    73.002052    63.221632    36.421745   -32004.154   -310506.77 
     220    790.63474    167930.27    72.977821    72.977822    36.409656          120   -7737.3593   -5984.9368   -57237.568    -1513.363   -1187.7659   -2746.5679    72.977821    63.200648    36.409656   -23653.288   -310512.54 
     230    771.01245     167768.2    72.954336    72.954336    36.397939          120   -7504.3527   -6101.7619   -47916.483   -1024.0224   -725.03622    -3332.722    72.954336    63.180309    36.397939   -20507.533    -310510.3 
     240    762.83773    167611.39    72.931599    72.931599    36.386595          120   -10200.456    -8075.294   -49014.614    -651.7422    -1842.523   -3705.9791    72.931599    63.160618    36.386595   -22430.121   -310530.28 
     250    774.70214    167458.33    72.909393    72.909393    36.375516          120   -13325.075   -11596.783   -60352.178   -500.96642   -2510.3353   -3362.4711    72.909393    63.141387    36.375516   -28424.679   -310588.91 
     260    784.11391    167306.59    72.887364    72.887364    36.364525          120    -14823.54   -14589.681   -73264.621   -625.93577   -2483.2606   -3583.6873    72.887364    63.122309    36.364525   -34225.948   -310645.63 
     270    765.07065    167153.98    72.865195    72.865196    36.353465          120   -14008.803   -15879.459   -83811.527   -199.91806   -2298.1517   -3169.7644    72.865195    63.103111    36.353465    -37899.93   -310647.91 
     280     743.4635    166999.25    72.842705    72.842705    36.342244          120   -13588.583   -13404.588   -86427.646   -172.02201    -1855.679    -1868.854    72.842705    63.083634    36.342244   -37806.939   -310644.06 
     290     739.7595    166842.55    72.819914    72.819915    36.330874          120   -10012.546   -7504.4126   -79708.497     260.8112    -1312.497   -2155.7833    72.819914    63.063896    36.330874   -32408.485    -310672.6 
     300    744.88796    166685.63    72.797078    72.797078     36.31948          120   -6026.4468   -3321.0946   -68500.674    544.56039   -1498.1379   -1854.6753    72.797078    63.044119     36.31948   -25949.405   -310717.39 
     310    736.80655    166530.64    72.774508    72.774509     36.30822          120    -2864.848   -1398.3866   -56170.115     206.7922   -253.69777   -2418.1317    72.774508    63.024573     36.30822    -20144.45   -310736.03 
     320     725.5987    166379.35    72.752463    72.752463    36.297221          120    -1083.883    -1247.618   -47405.417    435.64394   -378.47728    -1735.738    72.752463    63.005482    36.297221   -16578.973   -310748.24 
     330    717.02235    166232.74    72.731088    72.731089    36.286557          120   -1022.5577   -1008.6278     -43454.9    337.16506   -508.10006   -2033.4744    72.731088    62.986971    36.286557   -15162.029   -310765.22 
     340    715.54828    166091.02    72.710413    72.710413    36.276242          120   -2948.1279   -571.59177   -47911.302   -54.939384   -940.33168   -1934.9653    72.710413    62.969065    36.276242   -17143.674   -310794.85 
     350    716.41334    165953.35    72.690318    72.690318    36.266216          120   -3773.7551   -1153.5399   -57399.204   -467.69491   -1303.7586   -2019.0922    72.690318    62.951662    36.266216     -20775.5   -310829.24 
     360    700.10141    165818.45    72.670617    72.670618    36.256387          120   -3418.6257   -802.06394    -65727.74   -704.11317   -1374.7097   -2043.5733    72.670617    62.934601    36.256387   -23316.143   -310829.79 
     370    691.13496    165685.46    72.651184    72.651184    36.246692          120   -2279.8328    228.61888   -68516.607   -437.06233   -3715.9942   -2564.6152    72.651184    62.917771    36.246692   -23522.607   -310844.08 
     380    690.14802    165554.32     72.63201    72.632011    36.237126          120    501.68795     2414.383   -63606.516   -814.07313    -3941.495   -2926.9084     72.63201    62.901167    36.237126   -20230.148   -310873.11 
     390    685.51445    165425.91    72.613227    72.613228    36.227755          120    3324.4305    4952.8006   -57595.483   -1038.4477   -3389.4897   -2293.3288    72.613227      62.8849    36.227755   -16439.417   -310894.59 
     400    676.09017    165301.31    72.594992    72.594993    36.218657          120      5762.21    6051.1977   -50159.456      -775.51   -2700.7712   -2204.0629    72.594992    62.869108    36.218657   -12782.016   -310905.45 
     410    675.19349    165181.44     72.57744     72.57744      36.2099          120    5997.6748    7149.4897   -43241.132   -757.40584   -1883.4085   -2670.5388     72.57744    62.853907      36.2099   -10031.322   -310933.23 
     420    671.50399    165066.82    72.560648    72.560649    36.201522          120    6234.7852    7904.4005   -41010.201   -287.73514   -2213.0899   -2134.2586    72.560648    62.839365    36.201522    -8957.005    -310954.6 
     430    662.01885    164957.43    72.544617    72.544617    36.193524          120    6911.5846     6975.854   -42965.449   -214.34861   -1988.4193   -2514.6837    72.544617    62.825482    36.193524   -9692.6701   -310964.77 
     440    652.60483    164852.67    72.529256    72.529256     36.18586          120    6133.3392    5503.4595   -47838.642    257.17129   -2411.9681   -1522.6922    72.529256    62.812178     36.18586   -12067.281   -310974.68 
     450    647.59993    164751.49    72.514415    72.514415    36.178456          120    5676.3635    5395.8288   -52807.454    225.03036   -2068.4688   -1191.8732    72.514415    62.799326    36.178456   -13911.754   -310991.77 
     460    636.13166    164653.13    72.499981    72.499981    36.171255          120    7427.3416    7726.3092    -54370.94    923.18783   -1924.1755   -1855.7367    72.499981    62.786826    36.171255    -13072.43   -310996.19 
     470    631.08401    164557.52    72.485945    72.485946    36.164252          120    8795.1335    9382.2213   -53446.551    1554.8472   -2632.2159   -985.70363    72.485945    62.774671    36.164252   -11756.399   -311011.21 
     480    630.54428    164464.91    72.472344    72.472345    36.157466          120    10725.255    10908.436   -48959.762    1182.3921   -2341.0325   -1687.0553    72.472344    62.762892    36.157466   -9108.6906   -311035.36 
     490    626.16825    164375.83    72.459257    72.459258    36.150937          120    10887.624    13988.327   -43214.662    747.41565    -3061.183   -2123.0374    72.459257    62.751558    36.150937   -6112.9036   -311050.98 
     500    611.82797    164290.92    72.446779    72.446779    36.144711          120    13025.345    15967.429   -38881.686    963.22847   -2313.5246   -2914.5554    72.446779    62.740751    36.144711   -3296.3041   -311047.09 
     510     618.0241    164210.67    72.434981    72.434981    36.138825          120    14019.413    15611.728    -36966.59     1329.884   -2048.2235   -1848.3165    72.434981    62.730534    36.138825   -2445.1493   -311081.84 
     520    614.66069    164134.98    72.423851    72.423851    36.133272          120    13418.913    14901.993   -37360.183    1818.9806   -764.00091   -1029.8272    72.423851    62.720895    36.133272   -3013.0922   -311098.59 
     530    612.92193    164063.35    72.413314    72.413314    36.128015          120    13696.279    15131.982   -40166.701      1997.32   -227.27697   -880.97415    72.413314     62.71177    36.128015   -3779.4802   -311118.26 
     540    601.82769    163995.21    72.403287    72.403288    36.123013          120    13653.334    15755.925    -44061.13    1836.0725   -1203.6336   -41.621017    72.403287    62.703087    36.123013   -4883.9567   -311119.81 
     550    600.30597    163929.97    72.393684    72.393685    36.118222          120     13493.44    15986.891    -45502.95    1501.3254   -1046.9103   -1242.1838    72.393684     62.69477    36.118222   -5340.8732    -311138.5 
     560    589.54762    163867.26    72.384452    72.384453    36.113616          120     14496.82    16032.887   -43406.446    714.13347    391.70472   -1407.6631    72.384452    62.686775    36.113616   -4292.2467   -311139.22 
     570     584.6896    163807.17    72.375604    72.375605    36.109201          120    15626.584    17323.849   -40933.745    1040.0827    481.18161   -1203.2987    72.375604    62.679112    36.109201   -2661.1039   -311150.43 
     580    584.39453    163749.99    72.367181    72.367181    36.104999          120    17507.074    17474.755   -38240.421     1309.943   -791.44536   -1818.9551    72.367181    62.671818    36.104999   -1086.1974   -311170.07 
     590    576.00994    163695.93    72.359216    72.359216    36.101025          120    16937.172     17576.82    -36244.27    1425.5973   -771.58829   -2157.5404    72.359216     62.66492    36.101025   -576.75945   -311174.09 
     600    567.58159    163644.96    72.351706    72.351707    36.097278          120    17526.419    18022.156   -35116.188    2468.5522   -775.86835   -2199.5108    72.351706    62.658416    36.097278     144.1287   -311177.44 
     610    572.47757    163597.05    72.344645    72.344645    36.093755          120    17856.301    18523.835   -34867.199    2162.6007   -835.46553   -1073.0744    72.344645    62.652301    36.093755    504.31247   -311205.42 
     620    567.63407    163552.08    72.338015    72.338015    36.090447          120     18317.48    18823.171   -36832.255    1564.9495   -381.90999     -1569.44    72.338015    62.646559    36.090447    102.79862      -311215 
     630    561.72252    163509.72    72.331769     72.33177    36.087332          120    18724.128    18504.475   -39028.741    875.48667   -82.870717    -1549.728    72.331769     62.64115    36.087332   -600.04603   -311221.78 
     640    558.79688    163469.62    72.325856    72.325856    36.084381          120    19219.773    19331.777   -39676.448      1125.97   -11.175445   -1054.9867    72.325856    62.636029    36.084381   -374.96601   -311233.24 
     650    551.69164    163431.66    72.320257    72.320257    36.081588          120    19698.202    20002.298   -39423.374    825.58521      -395.68   -1318.8766    72.320257     62.63118    36.081588    92.375588   -311237.05 
     660    551.09715     163395.8    72.314967    72.314967    36.078949          120    18430.684    19825.851   -38523.137    1074.3009   -1010.4437    -1501.254    72.314967    62.626599    36.078949   -88.867327   -311252.57 
     670    550.95383    163361.91    72.309967    72.309967    36.076454          120    19506.859    19539.029   -36733.508    961.63819   -400.03856   -2063.5645    72.309967    62.622269    36.076454    770.79317   -311269.27 
     680     546.3272    163330.09    72.305272    72.305272    36.074112          120    19960.718    19930.967   -34626.901    250.94945   -830.21509   -1665.1059    72.305272    62.618203    36.074112     1754.928   -311276.46 
     690    538.63396     163300.5    72.300905    72.300905    36.071933          120    20101.996    19635.994   -33140.031    903.93733   -1035.7661   -1189.7083    72.300905    62.614421    36.071933    2199.3197    -311277.6 
     700    533.47502    163273.14    72.296866    72.296867    36.069918          120     19780.91    20147.156   -32792.405    793.39757    332.06795   -1080.5435    72.296866    62.610924    36.069918    2378.5539    -311283.1 
     710    530.97431    163247.91    72.293142    72.293143     36.06806          120    19469.933    20523.473   -33653.825    233.50128   -164.94308   -1103.2326    72.293142    62.607698     36.06806    2113.1938   -311293.16 
     720    527.24525     163224.6    72.289701    72.289702    36.066343          120    18887.082    20727.736    -35902.19     837.1861   -24.089185   -895.16956    72.289701    62.604718    36.066343    1237.5428   -311300.21 
     730     525.0733    163202.84     72.28649     72.28649    36.064741          120    18475.332    19520.546   -37131.607    1189.3338    35.252026   -879.13214     72.28649    62.601937    36.064741     288.0905   -311309.75 
     740    523.32084    163182.31    72.283458    72.283458    36.063228          120    19405.895    18871.527   -35468.319    756.08408    -77.08298   -869.87497    72.283458    62.599311    36.063228    936.36772   -311319.91 
     750      520.785    163163.09     72.28062    72.280621    36.061812          120     21031.27    20332.285   -34440.029    977.56396     883.8847   -615.55269     72.28062    62.596854    36.061812     2307.842   -311328.53 
     760     516.6159    163145.49    72.278021    72.278022    36.060516          120    21524.337    21150.964   -33324.682    1798.0947    1273.3822   -1202.7838    72.278021    62.594603    36.060516    3116.8728   -311333.19 
     770    517.83602    163129.68    72.275686    72.275687    36.059351          120    20658.847    20533.778   -32229.884    719.04176    783.95514   -1133.1104    72.275686    62.592581    36.059351    2987.5804   -311348.04 
     780    510.98123    163115.55    72.273599      72.2736     36.05831          120    20651.676    20401.199   -32578.452    -160.6425    804.45194   -665.63802    72.273599    62.590774     36.05831    2824.8078   -311345.93 
     790    507.32081    163102.99    72.271743    72.271744    36.057384          120    21108.145    20868.446   -30911.022    720.85774    522.77763   -1477.2439    72.271743    62.589166    36.057384    3688.5232    -311350.5 
     800    505.76518    163092.12    72.270138    72.270139    36.056583          120    22924.128    20401.963   -31609.676    969.77938   -72.454211   -1935.7809    72.270138    62.587776    36.056583    3905.4716   -311358.45 
     810    509.14368    163082.94    72.268783    72.268783    36.055907          120    22329.643    20430.201   -32456.404    919.26906   -391.38812   -1450.3872    72.268783    62.586602    36.055907      3434.48   -311375.26 
     820    503.29545    163075.24    72.267645    72.267645    36.055339          120    21775.057    20521.519   -33763.426    909.98756    128.39134    -946.3948    72.267645    62.585617    36.055339    2844.3832   -311374.65 
     830    500.99904    163068.81    72.266695    72.266696    36.054865          120    22532.601    21781.908   -33612.129    552.30778    601.68482    -1112.716    72.266695    62.584794    36.054865    3567.4597    -311380.7 
     840    496.23754    163063.75    72.265947    72.265948    36.054492          120    22119.514    22534.793   -33664.872    792.30362    725.25145   -190.72893    72.265947    62.584147    36.054492    3663.1451   -311380.95 
     850    496.65218    163060.07    72.265405    72.265405    36.054221          120    21950.109    22695.357   -31282.912    1328.5174    906.16434   -838.85242    72.265405    62.583677    36.054221    4454.1846   -311391.61 
     860    495.53918    163057.92    72.265086    72.265087    36.054062          120    21603.591    22982.033   -30877.374    1740.4992     1606.159   -1765.5965    72.265086    62.583401    36.054062    4569.4164   -311398.62 
     870    489.21223    163057.27    72.264991    72.264991    36.054015          120    22127.807    21281.522    -29984.88    1689.8364    1519.4442   -1403.4809    72.264991    62.583318    36.054015    4474.8161    -311395.1 
     880    488.31059    163058.04    72.265104    72.265104    36.054071          120    21617.799    21214.694   -30040.948    1676.8222    1161.8022   -1281.1434    72.265104    62.583416    36.054071    4263.8485   -311401.06 
     890    484.75853    163060.07    72.265405    72.265405    36.054221          120    20826.468    21838.176   -32151.937    1537.2171    766.31965   -835.83792    72.265405    62.583677    36.054221    3504.2356   -311401.68 
     900    482.25134    163063.11    72.265853    72.265854    36.054445          120    20808.168    21032.757   -33518.668    913.75499    340.71262   -42.158746    72.265853    62.584065    36.054445    2774.0854   -311403.64 
     910    484.85748     163066.9    72.266413    72.266413    36.054724          120    20767.343    20888.887   -33523.029    1370.1635    213.19452   -132.96857    72.266413     62.58455    36.054724     2711.067   -311415.01 
     920    479.26618    163071.39    72.267076    72.267077    36.055055          120    21303.109     21603.94   -33737.395    1391.5369   -608.26342   -581.56926    72.267076    62.585124    36.055055    3056.5513   -311410.64 
     930     483.6653    163076.63    72.267851    72.267852    36.055442          120    21765.699    21640.735   -34169.456    1163.2078   -592.17163   -384.27991    72.267851    62.585796    36.055442    3078.9924   -311425.06 
     940    481.21278    163082.65    72.268739     72.26874    36.055885          120    22373.715    21429.654   -33536.432    1395.5372   -486.65821    324.58715    72.268739    62.586565    36.055885    3422.3122   -311425.36 
     950    480.26243    163089.45    72.269744    72.269745    36.056386          120    21882.733    21057.255   -34243.946    1565.3306   -237.69765    711.55712    72.269744    62.587435    36.056386    2898.6806   -311427.97 
     960    477.48363    163096.94     72.27085    72.270851    36.056938          120    21675.057    21481.966   -33124.527    1742.4675    471.99659    188.51155     72.27085    62.588393    36.056938    3344.1652   -311426.68 
     970    476.21375    163105.16    72.272065    72.272066    36.057544          120    21441.852    21867.442   -33177.181    1507.3495    854.00733   -65.834647    72.272065    62.589445    36.057544    3377.3711   -311427.94 
     980    478.51769    163114.13    72.273389     72.27339    36.058205          120    21512.414    21371.262   -32952.428    1086.3705    2473.3626   -692.56696    72.273389    62.590592    36.058205    3310.4158   -311435.07 
     990    479.39798    163123.78    72.274814    72.274815    36.058916          120    20959.066     20956.63   -33458.282    152.96752       1729.9   -231.17977    72.274814    62.591826    36.058916    2819.1382   -311439.29 
    1000    479.37852    163133.96    72.276318    72.276318    36.059666          120     20557.21    21795.033   -34329.059    789.77412    1246.9495    -489.6412    72.276318    62.593128    36.059666    2674.3946    -311441.2 
Loop time of 308.818 on 1 procs for 1000 steps with 14848 atoms

Performance: 0.280 ns/day, 85.783 hours/ns, 3.238 timesteps/s
100.0% CPU use with 1 MPI tasks x no OpenMP threads

MPI task timing breakdown:
Section |  min time  |  avg time  |  max time  |%varavg| %total
---------------------------------------------------------------
Pair    | 237.51     | 237.51     | 237.51     |   0.0 | 76.91
Bond    | 0.00018859 | 0.00018859 | 0.00018859 |   0.0 |  0.00
Kspace  | 11.074     | 11.074     | 11.074     |   0.0 |  3.59
Neigh   | 53.446     | 53.446     | 53.446     |   0.0 | 17.31
Comm    | 0.47416    | 0.47416    | 0.47416    |   0.0 |  0.15
Output  | 0.010627   | 0.010627   | 0.010627   |   0.0 |  0.00
Modify  | 6.1949     | 6.1949     | 6.1949     |   0.0 |  2.01
Other   |            | 0.1111     |            |       |  0.04

Nlocal:    14848 ave 14848 max 14848 min
Histogram: 1 0 0 0 0 0 0 0 0 0
Nghost:    46841 ave 46841 max 46841 min
Histogram: 1 0 0 0 0 0 0 0 0 0
Neighs:    1.00895e+07 ave 1.00895e+07 max 1.00895e+07 min
Histogram: 1 0 0 0 0 0 0 0 0 0

Total # of neighbors = 10089465
Ave neighs/atom = 679.517
Ave special neighs/atom = 0
Neighbor list builds = 193
Dangerous builds = 0
PPPM initialization ...
  using 12-bit tables for long-range coulomb (../kspace.cpp:321)
  G vector (1/distance) = 0.202614
  grid = 36 50 24
  stencil order = 5
  estimated absolute RMS force accuracy = 0.000997074
  estimated relative force accuracy = 6.9243e-05
  using double precision FFTs
  3d grid and FFT values/proc = 65395 43200
Setting up Verlet run ...
  Unit style    : metal
  Current step  : 0
  Time step     : 0.001
Per MPI rank memory allocation (min/avg/max) = 151.5 | 151.5 | 151.5 Mbytes
Step Temp Volume Cella Cellb Cellc CellGamma Pxx Pyy Pzz Pxy Pxz Pyz Lx Ly Lz Press PotEng 
       0    479.37852    163133.96    72.276318    72.276318    36.059666          120    20569.163    21807.383   -34322.896    790.15488    1247.1761   -489.41687    72.276318    62.593128    36.059666    2684.5498   -311441.04 
      10    479.17246     163144.6    72.277889     72.27789     36.06045          120    21263.916    21791.764   -34653.561    1337.4707    1307.4048   -396.17909    72.277889    62.594489     36.06045    2800.7061   -311442.37 
      20    478.74081    163155.72    72.279532    72.279533     36.06127          120    21119.734    22209.418    -34661.04    2217.7198     1062.419   -346.31923    72.279532    62.595912     36.06127    2889.3702   -311442.94 
      30    477.76767    163167.33    72.281247    72.281247    36.062125          120    21099.332    22094.013   -34303.891    3003.7348    551.81445   -364.67432    72.281247    62.597396    36.062125    2963.1513   -311441.37 
      40    479.08275    163179.46    72.283037    72.283037    36.063018          120    22359.296    21364.569   -33096.775    2556.6372    27.971716    231.99006    72.283037    62.598947    36.063018    3542.3633   -311444.69 
      50    476.52959    163192.25    72.284926    72.284927    36.063961          120    22545.842    21744.476   -31930.076    2029.6935    323.16376    1187.0658    72.284926    62.600583    36.063961    4120.0806   -311439.44 
      60    475.70392    163205.84    72.286932    72.286932    36.064961          120    20778.654    21522.872    -31531.34    1647.6483    754.06604    779.68733    72.286932     62.60232    36.064961    3590.0617    -311437.9 
      70     479.6448    163220.03    72.289027    72.289028    36.066007          120    20359.629    20895.131   -33204.928    1424.7788    1093.8095    189.24712    72.289027    62.604134    36.066007    2683.2776   -311444.34 
      80    478.51474    163234.58    72.291174    72.291175    36.067078          120    20808.539    20756.894   -33690.024    1358.4863    448.62303    1211.0274    72.291174    62.605994    36.067078    2625.1363   -311440.59 
      90    477.95865    163249.39    72.293362    72.293362    36.068169          120     20320.49     19765.46   -33895.511    1359.8569    805.52085    1400.1012    72.293362    62.607888    36.068169    2063.4796   -311438.12 
     100    478.57993    163264.36    72.295571    72.295571    36.069272          120    21159.181    19972.775   -33716.333    2096.1914    616.26404    840.12523    72.295571    62.609802    36.069272    2471.8746   -311437.15 
     110    482.19746    163279.55    72.297813    72.297814     36.07039          120    21626.393    20273.459   -34536.944    1603.5785    885.80452   -212.24762    72.297813    62.611743     36.07039    2454.3027   -311441.17 
     120    485.25357    163294.97    72.300089    72.300089    36.071526          120    20440.843    20968.332   -34455.757    1058.4125    853.28473   -49.519712    72.300089    62.613714    36.071526    2317.8063   -311443.89 
     130    480.98807    163310.58    72.302393    72.302394    36.072675          120    20549.457    20286.165   -34558.605    818.28377    305.34408   -330.86939    72.302393     62.61571    36.072675     2092.339   -311432.93 
     140       481.18     163326.3    72.304712    72.304712    36.073832          120    19991.262    19687.387   -35507.188    1203.1289   -687.49778    185.83397    72.304712    62.617718    36.073832     1390.487   -311429.58 
     150    485.33307    163341.93    72.307018    72.307019    36.074983          120    19286.908    19905.369   -34586.947    1120.0635   -151.40378    936.05325    72.307018    62.619715    36.074983    1535.1098   -311433.62 
     160    484.24974    163357.52    72.309319     72.30932    36.076131          120    19424.061    20571.323   -34257.022    1645.3261    293.15826    887.91199    72.309319    62.621708    36.076131    1912.7874    -311427.3 
     170    484.45769    163373.15    72.311625    72.311625    36.077281          120    18840.502    20205.519   -35066.303    1874.9659    283.77007    529.05843    72.311625    62.623705    36.077281    1326.5726   -311424.11 
     180    488.77656    163388.65    72.313913    72.313913    36.078422          120    19003.719    19459.903   -36147.839    1846.3654     -306.096    648.05491    72.313913    62.625686    36.078422     771.9277   -311427.94 
     190     486.1918    163403.87    72.316158    72.316159    36.079543          120    20275.941    17984.647    -37033.98    1247.2394   -805.80783      46.4338    72.316158    62.627631    36.079543    408.86935   -311418.47 
     200    486.94549    163418.72    72.318348    72.318348    36.080635          120    20353.422    18211.546   -36898.807     1165.908   -382.31668    236.30705    72.318348    62.629527    36.080635    555.38706   -311415.63 
     210    485.90035    163433.25    72.320491    72.320492    36.081705          120    20495.873    19007.751   -36453.786    1582.2513    73.415686    403.21862    72.320491    62.631383    36.081705    1016.6125   -311409.42 
     220    489.15368    163447.62     72.32261    72.322611    36.082762          120    20707.241    19400.602   -36084.409    1869.4725   -79.740892   -592.47006     72.32261    62.633218    36.082762    1341.1445   -311411.27 
     230    494.48032    163461.92     72.32472     72.32472    36.083814          120    20349.293    19946.214   -35470.029    2236.8954    656.07621   -1299.2261     72.32472    62.635045    36.083814    1608.4928   -311416.55 
     240    502.85602    163476.23     72.32683     72.32683    36.084867          120    18764.958    20293.656   -35554.892    2150.2696     644.6859    -935.0694     72.32683    62.636873    36.084867    1167.9073   -311428.27 
     250    500.87292    163490.41    72.328921    72.328922    36.085911          120    18938.619    18043.815   -36738.699    1417.5496    470.49925   -467.38064    72.328921    62.638684    36.085911    81.244895   -311421.47 
     260    492.39189    163504.19    72.330954    72.330955    36.086925          120    19021.235    18524.683   -37090.305    1153.3194    1377.3214    -532.8496    72.330954    62.640444    36.086925     151.8709    -311402.3 
     270    498.74976    163517.56    72.332925    72.332925    36.087908          120    18363.539    19093.429   -36835.208    1222.9951    1712.2835    795.00094    72.332925    62.642151    36.087908    207.25322   -311411.56 
     280    497.11721    163530.57    72.334843    72.334843    36.088865          120     18556.35     19104.68   -35537.139    1081.8095     986.8704    173.38223    72.334843    62.643812    36.088865    707.96372   -311405.86 
     290      498.839    163543.38    72.336731    72.336732    36.089807          120    17959.612    19330.438     -34786.3    1456.1913    849.68486   -238.08634    72.336731    62.645448    36.089807     834.5834   -311406.26 
     300    498.99212    163556.02    72.338595    72.338596    36.090737          120    17082.438    19753.268   -36145.114    1393.2262    1120.8226    63.597986    72.338595    62.647062    36.090737    230.19742   -311404.22 
     310    503.12043    163568.31    72.340408    72.340408    36.091641          120     17279.07    19197.207   -37905.158    1089.1234    1117.6802    380.53438    72.340408    62.648632    36.091641   -476.29363   -311410.41 
     320    500.96536    163580.12    72.342149    72.342149     36.09251          120    18352.198    19249.374   -36422.066    1126.6099    7.2489944    715.12788    72.342149    62.650139     36.09251    393.16872   -311405.01 
     330    503.28279    163591.66    72.343849     72.34385    36.093358          120    18638.909    18203.542   -34464.982    1540.9659    441.48014   -494.86683    72.343849    62.651612    36.093358    792.48966    -311409.2 
     340    498.85163    163603.08    72.345532    72.345533    36.094198          120    19115.033    18142.687    -35180.16    1840.7362    1575.2731   -272.89767    72.345532     62.65307    36.094198    692.52023   -311400.31 
     350    499.53946    163614.36    72.347195    72.347196    36.095028          120    19107.904      18254.9   -35583.534    2227.5437     1925.971    100.00035    72.347195     62.65451    36.095028    593.08998   -311401.74 
     360    497.68645    163625.46    72.348832    72.348832    36.095844          120    18529.567    17497.662     -35446.4    2628.3744    2101.5254    427.59347    72.348832    62.655927    36.095844    193.60936    -311398.2 
     370    500.11187    163636.28    72.350426    72.350427     36.09664          120    18662.794    17286.132   -35362.601     2544.895    1884.5214    406.75339    72.350426    62.657308     36.09664    195.44172   -311402.85 
     380    498.37015    163646.82    72.351979     72.35198    36.097414          120    19081.506    17474.078   -35820.938    1968.9379    1116.3284     217.9724    72.351979    62.658652    36.097414    244.88177   -311400.61 
     390    498.30413    163657.11    72.353496    72.353496    36.098171          120    19390.066    17389.457   -35922.905    2342.7629    1012.9735    865.28736    72.353496    62.659966    36.098171    285.53921   -311402.01 
     400    497.34067    163667.16    72.354977    72.354978     36.09891          120    19186.714     17483.34   -36593.304    2184.7232   -200.20436    119.94786    72.354977    62.661249     36.09891     25.58364   -311402.58 
     410    504.29345    163676.92    72.356416    72.356416    36.099628          120    18727.619    18365.611   -36846.103    1806.0071   -465.12633   -812.21838    72.356416    62.662495    36.099628    82.375581    -311417.6 
     420    500.77334    163686.42    72.357815    72.357816    36.100326          120    19936.063    18617.222   -37013.891    2025.8264   -347.43824   -81.161313    72.357815    62.663707    36.100326    513.13133   -311413.53 
     430     499.6359     163695.8    72.359197    72.359198    36.101016          120    20016.593    18334.565   -35896.919    1323.3446   -604.03006   -567.69439    72.359197    62.664903    36.101016    818.07976   -311414.84 
     440    496.86381    163705.12    72.360571    72.360572    36.101701          120    19223.422    17629.649   -36030.896    1056.0208   -483.02658   -1046.4576    72.360571    62.666093    36.101701    274.05848   -311412.62 
     450    494.77159    163714.24    72.361914    72.361915    36.102371          120    18344.103    17350.831   -36276.762    1760.9977   -90.630584   -731.87261    72.361914    62.667257    36.102371   -193.94257   -311412.03 
     460    495.88785    163723.01    72.363207    72.363208    36.103016          120    17532.037    17765.726    -37875.56    1239.2464   -105.72573   -542.38353    72.363207    62.668376    36.103016   -859.26576   -311418.23 
     470     497.5009    163731.28    72.364424    72.364425    36.103623          120    16816.557    17776.463   -37663.803    1434.2897    855.44264   -4.8131947    72.364424     62.66943    36.103623   -1023.5941   -311425.43 
     480    492.02858    163738.97    72.365557    72.365558    36.104189          120    17427.632    18592.124   -38467.457    1632.4077    1382.0172   -829.27269    72.365557    62.670412    36.104189   -815.90024   -311418.44 
     490    495.01297    163746.16    72.366616    72.366617    36.104717          120    17549.369    18317.528    -38206.05    1712.7961    539.74986   -799.88475    72.366616    62.671329    36.104717   -779.71783   -311428.61 
     500    492.25273    163752.89    72.367608    72.367609    36.105212          120    17873.454    17043.506   -37480.797    1034.9959    209.39558    102.07882    72.367608    62.672188    36.105212   -854.61241   -311427.73 
     510    488.51179    163759.14    72.368529    72.368529    36.105671          120    17232.384    16906.592   -38098.255    191.79952    221.65151    444.98103    72.368529    62.672985    36.105671   -1319.7595   -311425.71 
     520    486.45119    163764.84    72.369368    72.369369     36.10609          120    17240.807    16851.553   -36115.382    1459.7933    114.34923    959.44415    72.369368    62.673712     36.10609   -674.34057   -311425.74 
     530    487.89957    163770.14     72.37015     72.37015     36.10648          120    17698.825    16911.884   -36376.151    1341.1434    271.20389    22.182533     72.37015    62.674389     36.10648   -588.48058   -311432.23 
     540    491.47521    163775.08    72.370877    72.370877    36.106843          120    18032.846    16461.844   -37475.045    1760.6782    116.73681   -310.66834    72.370877    62.675018    36.106843    -993.4516   -311443.25 
     550    488.82299    163779.58    72.371539     72.37154    36.107173          120    17470.119    16914.282   -37494.484    1888.3559    522.19747   -855.26224    72.371539    62.675592    36.107173   -1036.6944   -311441.84 
     560    480.24503    163783.59    72.372131    72.372131    36.107468          120    16664.771    16315.917   -37531.455    2146.3219    314.03399   -560.18554    72.372131    62.676104    36.107468   -1516.9224   -311429.47 
     570    487.59451    163787.05     72.37264     72.37264    36.107722          120    18203.957    16252.992   -36693.946    1519.9988    242.44754   -630.87107     72.37264    62.676545    36.107722   -745.66593   -311447.28 
     580    488.75677    163790.15    72.373097    72.373097     36.10795          120    17650.913     16609.54    -36205.96    1702.6644    464.82436   -210.38566    72.373097    62.676941     36.10795   -648.50224   -311452.45 
     590    481.64647    163792.97    72.373512    72.373513    36.108158          120     17715.27    17333.675   -36298.797    1814.9575     883.7207   -814.96258    72.373512    62.677301    36.108158   -416.61719   -311442.37 
     600    480.86236    163795.59    72.373898    72.373898     36.10835          120    17658.261    17629.851   -35850.726    1639.5559    1085.2875   -669.61722    72.373898    62.677635     36.10835   -187.53775   -311443.24 
     610    484.54961    163798.07    72.374263    72.374263    36.108532          120    17488.411    18186.731   -36712.064    1957.7123    1307.6779      351.284    72.374263    62.677951    36.108532   -345.64091   -311452.43 
     620    482.13347    163800.35    72.374599    72.374599      36.1087          120    16849.504     18002.81   -38314.768    2053.8488    626.16392    483.41418    72.374599    62.678242      36.1087   -1154.1513   -311450.38 
     630    479.25699    163802.21    72.374872    72.374873    36.108836          120    17115.333    16302.453   -38358.726    2386.0132    122.32746    470.49889    72.374872    62.678479    36.108836   -1646.9798   -311446.69 
     640    480.56986    163803.52    72.375066    72.375067    36.108933          120    17952.417    16163.691   -37489.088    1470.1799    50.025018   -230.61896    72.375066    62.678647    36.108933   -1124.3265   -311450.99 
     650    485.83817    163804.44    72.375201    72.375202       36.109          120     18679.09    16546.965   -37891.517    1576.1871    13.271642   -917.51299    72.375201    62.678764       36.109   -888.48749   -311462.39 
     660    481.63379    163805.04     72.37529     72.37529    36.109044          120    18709.814    16602.932   -38051.998    2093.3177    146.95981   -537.65267     72.37529     62.67884    36.109044   -913.08406   -311455.25 
     670    483.43472    163805.35    72.375335    72.375335    36.109067          120    18443.851    16743.678   -36994.207    1747.3381    952.91481    884.73874    72.375335    62.678879    36.109067   -602.22607   -311459.51 
     680     477.4733    163805.46    72.375351    72.375352    36.109075          120    18261.632    17849.804   -36652.358    2069.6084    602.54156    66.964953    72.375351    62.678893    36.109075   -180.30738   -311448.57 
     690    481.57435    163805.47    72.375353    72.375353    36.109076          120    17538.541    17319.626   -37541.246    2398.8337    240.69918   -206.23346    72.375353    62.678895    36.109076   -894.35947   -311456.38 
     700    474.96651    163805.24    72.375319    72.375319    36.109059          120    18537.923    17150.005    -37624.44    2108.8166    459.98311    -466.3421    72.375319    62.678865    36.109059   -645.50399   -311443.69 
     710    480.04454     163804.8    72.375255    72.375255    36.109027          120    18410.246    17817.207   -37713.698    1926.6055    684.60785   -90.575778    72.375255     62.67881    36.109027   -495.41514   -311451.79 
     720    483.52773    163804.23     72.37517    72.375171    36.108985          120    18927.926    18110.059    -37940.86    1820.1255     748.9816   -55.865872     72.37517    62.678737    36.108985   -300.95834   -311457.45 
     730    483.11983    163803.55     72.37507     72.37507    36.108935          120    18434.704    17527.902   -37817.882    1880.2654    357.01291   -143.94359     72.37507     62.67865    36.108935   -618.42548   -311454.97 
     740    483.92709     163802.7    72.374945    72.374946    36.108873          120    17291.726    18317.771   -37032.957    1717.3422    1176.0483   -418.77992    72.374945    62.678542    36.108873   -474.48659   -311455.18 
     750    483.27599    163801.73    72.374802    72.374803    36.108801          120    17011.284    18658.062   -37161.352    1563.9685    850.07851    -368.2289    72.374802    62.678418    36.108801   -497.33549   -311452.02 
     760    486.48475     163800.6    72.374636    72.374636    36.108718          120    16734.721    17598.293   -37946.959    1313.7879    1428.1501   -264.10394    72.374636    62.678274    36.108718   -1204.6482   -311455.44 
     770    482.40647    163799.18    72.374426    72.374427    36.108613          120    17829.148    18167.341   -37130.566      965.353    1394.6143    201.65324    72.374426    62.678092    36.108613   -378.02545   -311445.04 
     780    486.46722    163797.66    72.374203    72.374203    36.108502          120    18495.788    18578.119   -36559.784    1649.2458    37.620865   -721.76682    72.374203    62.677899    36.108502    171.37433   -311451.01 
     790    485.45248    163796.23    72.373992    72.373992    36.108397          120     17971.82    18084.161   -35635.043    1753.3675    40.801543   -597.45568    72.373992    62.677716    36.108397    140.31253   -311446.06 
     800    485.91326    163794.86     72.37379    72.373791    36.108296          120    18632.869    16999.569   -36845.329    1946.6392    201.80099    500.93613     72.37379    62.677541    36.108296   -404.29668   -311444.15 
     810    494.19016    163793.39    72.373574    72.373574    36.108188          120    17820.709    16510.026   -37589.619    2109.6195    117.95204   -130.72552    72.373574    62.677354    36.108188   -1086.2946   -311456.04 
     820    484.22945    163791.63    72.373315    72.373316    36.108059          120    16733.331    16946.801   -37242.477    2186.5516    125.42877   -828.27584    72.373315     62.67713    36.108059    -1187.448   -311434.06 
     830    488.04703    163789.53    72.373006    72.373006    36.107905          120    16650.153     15972.67   -36870.173    1852.4685    665.89002   -729.11509    72.373006    62.676862    36.107905   -1415.7834   -311438.46 
     840    489.08075    163787.06    72.372642    72.372643    36.107723          120    17844.993    16774.091   -36595.521    2145.8787    716.53963   -1076.1328    72.372642    62.676547    36.107723   -658.81209   -311436.78 
     850     490.3118    163784.45    72.372256    72.372257    36.107531          120    19276.345    18663.123   -37291.197    2050.0591    821.73066   -799.36017    72.372256    62.676213    36.107531    216.09025    -311436.3 
     860    492.16362    163781.94    72.371887    72.371888    36.107347          120     18218.57    18657.622   -35736.941     2024.667    1005.7771   -32.230112    72.371887    62.675893    36.107347    379.75052   -311437.29 
     870    496.00869    163779.59    72.371541    72.371541    36.107174          120    18077.318    17471.827   -36070.894    2166.8703    123.20109    240.41332    72.371541    62.675593    36.107174   -173.91648   -311441.89 
     880    492.88404    163777.25    72.371196    72.371197    36.107002          120    17719.337    17472.924   -37608.857    1951.9332     456.6874    313.90176    72.371196    62.675295    36.107002    -805.5321    -311432.9 
     890    497.65918    163774.73    72.370826    72.370826    36.106817          120    17646.761    17422.696   -37942.809    2399.2821   -518.92935   -525.94925    72.370826    62.674974    36.106817   -957.78365   -311439.31 
     900    493.20496    163772.01    72.370424    72.370425    36.106617          120    17379.511     17306.39   -36549.041    2288.7551   -387.24494   -771.24885    72.370424    62.674627    36.106617   -621.04682   -311428.41 
     910    493.19551    163769.15    72.370003    72.370004    36.106407          120    18393.265    17053.547   -37277.652    1199.7629   -505.35828   -666.05771    72.370003    62.674262    36.106407   -610.28011   -311426.01 
     920     495.9512    163766.19    72.369567    72.369568    36.106189          120     18749.37    18083.763   -36554.243    1072.7714   -559.11121   -1028.7415    72.369567    62.673884    36.106189    92.963318   -311428.68 
     930    499.03073    163763.32    72.369145    72.369146    36.105979          120    19611.835    18126.935   -35576.897    1273.9021    1010.2357   -1036.4834    72.369145    62.673519    36.105979    720.62433   -311433.02 
     940    500.78895    163760.72    72.368762    72.368763    36.105788          120    19440.296    17879.705   -35883.654    1422.7432    456.63518   -774.89602    72.368762    62.673187    36.105788    478.78246   -311434.84 
     950    497.52184    163758.37    72.368415    72.368416    36.105615          120    19131.992    18808.422   -35062.226     1860.587    295.66274   -1177.8585    72.368415    62.672886    36.105615    959.39583   -311427.78 
     960    498.54377    163756.36    72.368119     72.36812    36.105467          120     19326.35    18907.597   -35827.815    1915.1713    891.93307   -990.77681    72.368119     62.67263    36.105467     802.0438   -311428.97 
     970    498.40567    163754.65    72.367868    72.367868    36.105342          120    18664.303    19330.688   -36667.728    1963.0561    617.44593   -89.684869    72.367868    62.672413    36.105342    442.42111   -311428.78 
     980    497.98104    163753.13    72.367644    72.367645     36.10523          120    18718.734     18587.75   -36336.168    1541.3245    359.80756       -413.7    72.367644    62.672219     36.10523    323.43897   -311427.45 
     990    496.63283    163751.75     72.36744    72.367441    36.105128          120    18954.982     17545.23   -36041.098    1212.0637   -95.417107   -101.42846     72.36744    62.672042    36.105128    153.03782   -311424.72 
    1000    495.47224    163750.46    72.367249     72.36725    36.105033          120    18860.959    18273.906   -36236.192    1465.3417   -327.10757   -275.77681    72.367249    62.671877    36.105033    299.55757   -311423.14 
    1010    498.02059    163749.25    72.367072    72.367073    36.104945          120    17730.006    19023.448    -36728.84    1458.0376   -918.74729   -1087.6717    72.367072    62.671724    36.104945    8.2044403   -311428.47 
    1020    500.37619    163748.11    72.366905    72.366905    36.104861          120    18164.565    19350.531   -36204.564    1412.6069   -1064.1684   -1081.7745    72.366905    62.671578    36.104861    436.84427      -311434 
    1030    498.23853    163747.14    72.366761    72.366761    36.104789          120    18438.594    20246.461   -36229.907    2142.1785   -744.62573   -1058.1855    72.366761    62.671454    36.104789    818.38261   -311431.25 
    1040    501.44185    163746.42    72.366654    72.366655    36.104736          120    18710.079    19490.314   -36657.785    1950.0921   -319.80583   -826.61949    72.366654    62.671362    36.104736    514.20261   -311438.44 
    1050    495.65351     163745.9    72.366578    72.366578    36.104698          120    19627.875    18663.443   -35652.544    2130.9622    208.05525   -1061.2798    72.366578    62.671295    36.104698    879.59131   -311429.92 
    1060    493.48863    163745.64    72.366541    72.366541    36.104679          120    19210.815    18793.848   -35119.599    1970.4218    226.19023    -1407.946    72.366541    62.671263    36.104679    961.68777   -311428.13 
    1070    497.69689    163745.71    72.366551    72.366551    36.104684          120    18921.513    19195.993   -34375.664    1501.2151    628.29986   -543.90476    72.366551    62.671272    36.104684    1247.2804   -311439.15 
    1080    494.82054    163746.18    72.366619     72.36662    36.104719          120    19791.223    19094.754   -34302.904    2393.8614    174.91032   -247.25851    72.366619    62.671331    36.104719    1527.6909   -311436.28 
    1090    488.79823    163747.09    72.366754    72.366754    36.104786          120      19300.2    18181.223   -34153.857     1996.835    415.44924    208.43998    72.366754    62.671448    36.104786    1109.1889   -311427.29 
    1100     495.7717    163748.31    72.366933    72.366934    36.104875          120    18471.305    18057.045   -35896.769    2159.7789   -148.11584    540.74032    72.366933    62.671603    36.104875    210.52698   -311443.49 
    1110    492.54861    163749.58    72.367121    72.367121    36.104969          120    19115.449    17754.981   -36494.111    2180.1288   -1274.7573   -1071.0931    72.367121    62.671766    36.104969    125.43965   -311440.97 
    1120    490.23542    163750.84    72.367307    72.367307    36.105062          120    18929.042     18266.92   -37536.798    2443.7237   -665.09091   -1207.7329    72.367307    62.671927    36.105062   -113.61204   -311439.47 
    1130      491.582    163752.09    72.367491    72.367491    36.105153          120    19888.375    18805.064   -36293.975    1950.8753   -175.05424   -667.03565    72.367491    62.672086    36.105153    799.82154   -311445.33 
    1140    489.78821    163753.52    72.367701    72.367702    36.105258          120    19403.791    18888.473   -36526.312    2053.0658     297.1396   -766.29497    72.367701    62.672268    36.105258    588.65097   -311445.23 
    1150    488.86045    163755.11    72.367936    72.367936    36.105375          120    19766.174    17833.178   -36560.519    1650.0236   -155.53772   -914.01139    72.367936    62.672471    36.105375    346.27776   -311446.68 
    1160    490.36293    163756.78    72.368181    72.368182    36.105498          120    19152.274    17929.055   -36229.569    1919.9914   -256.31087   -738.87544    72.368181    62.672684    36.105498    283.91999   -311452.26 
    1170    489.93735    163758.51    72.368436    72.368437    36.105625          120    19121.304    18571.941   -35814.152    2066.3893    751.95686   -972.79137    72.368436    62.672905    36.105625    626.36412   -311455.19 
    1180    493.93332    163760.39    72.368713    72.368713    36.105763          120    18934.664    18492.018   -35903.853    1570.8492    438.14766   -793.05716    72.368713    62.673144    36.105763    507.60944   -311465.97 
    1190    487.83943     163762.4    72.369009     72.36901    36.105911          120    18973.363    18325.141   -35611.474    1331.5342    849.17006    -62.87737    72.369009    62.673401    36.105911    562.34333   -311456.76 
    1200    483.53331    163764.53    72.369323    72.369324    36.106068          120    19475.238    17812.807   -35818.927    1775.4658    658.02384    570.08001    72.369323    62.673673    36.106068    489.70601   -311451.52 
    1210    484.95618    163766.74    72.369648    72.369648     36.10623          120    19652.413    17128.911    -37487.27    1581.2308   -363.73801     188.1371    72.369648    62.673954     36.10623   -235.31552   -311456.57 
    1220    481.53925    163768.84    72.369957    72.369958    36.106384          120    19461.792    17617.601    -37900.47    1264.9325   -580.04429    -151.8528    72.369957    62.674222    36.106384   -273.69244   -311452.67 
    1230    483.38859     163770.8    72.370246    72.370247    36.106528          120    19317.591    17959.963   -37442.563    1100.4559   -1165.4533    558.56573    72.370246    62.674472    36.106528   -55.003019   -311458.92 
    1240    486.01615    163772.72     72.37053     72.37053     36.10667          120    19700.846    19561.703   -37243.927    995.53352   -436.38367    260.36477     72.37053    62.674718     36.10667    672.87383   -311465.77 
    1250    482.79684     163774.8    72.370836    72.370836    36.106822          120     19661.87    18890.808   -36166.338    1547.7547    610.40333    939.76903    72.370836    62.674983    36.106822    795.44653   -311461.49 
    1260    486.91466    163777.06    72.371168    72.371168    36.106988          120    19394.846    17849.485   -36002.233    2109.1239    579.15776    555.51378    72.371168     62.67527    36.106988    414.03242   -311470.77 
    1270    483.61363    163779.43    72.371517    72.371517    36.107162          120    19710.086    18878.366   -35664.768    2390.4938    281.71528    91.840395    72.371517    62.675573    36.107162    974.56138   -311466.35 
    1280    487.14698    163782.05    72.371903    72.371904    36.107355          120    19890.012    18707.727   -35383.089    3152.8289   -476.68692    473.94125    72.371903    62.675907    36.107355      1071.55   -311474.49 
    1290    481.74469    163784.93    72.372327    72.372328    36.107566          120    19878.293    17814.022    -37049.52     2821.777   -79.525079    -376.9152    72.372327    62.676274    36.107566    214.26502   -311464.81 
    1300    485.39846    163787.86    72.372759    72.372759    36.107782          120    19868.527    18562.713   -36422.552     2005.384    45.634959   -474.56488    72.372759    62.676648    36.107782    669.56293   -311472.16 
    1310     483.5577    163790.94    72.373213    72.373214    36.108009          120    20164.431    19039.267   -35474.091    1618.5022   -103.48894   -763.99459    72.373213    62.677042    36.108009    1243.2025   -311469.21 
    1320    481.78399    163794.32     72.37371    72.373711    36.108256          120    19652.257    18661.657    -35583.28    1774.3411    395.22425   -463.23363     72.37371    62.677472    36.108256    910.21145   -311466.29 
    1330    481.75749     163797.9    72.374238    72.374239     36.10852          120    19459.841    18898.564   -36330.743    2033.3535    661.64027   -303.01643    72.374238    62.677929     36.10852    675.88713   -311466.51 
    1340    478.83986    163801.61    72.374784    72.374784    36.108792          120    19334.759    18123.007   -36920.574    2752.4397    1319.6601    842.11709    72.374784    62.678402    36.108792    179.06425   -311460.68 
    1350    484.93114    163805.31     72.37533    72.375331    36.109065          120    19375.681    18058.909   -36770.718    2214.0851    1724.4179    287.87157     72.37533    62.678875    36.109065    221.29042   -311471.54 
    1360    481.54826    163808.99    72.375871    72.375871    36.109334          120    19208.126    17297.537   -37556.241    2188.5032    1004.9451    -314.6695    72.375871    62.679343    36.109334   -350.19264   -311463.85 
    1370    486.51559     163812.5    72.376388    72.376389    36.109593          120    18388.444    17171.777   -35979.264    1547.1867    1653.5628    -1093.963    72.376388    62.679792    36.109593   -139.68114   -311472.59 
    1380    484.39738    163815.89    72.376888    72.376888    36.109842          120    18633.551     18173.35    -36245.81    1728.0841    1178.6636   -1040.4825    72.376888    62.680224    36.109842    187.03043   -311466.68 
    1390    481.08334    163819.24    72.377381    72.377382    36.110088          120    19308.567    19085.243   -36925.361    1917.1236    870.82962     -1356.91    72.377381    62.680652    36.110088    489.48301   -311458.68 
    1400    487.57443    163822.66    72.377884    72.377885    36.110339          120    19674.897    18258.658   -36523.579    2164.6411    12.790653   -710.35438    72.377884    62.681087    36.110339    469.99206   -311469.43 
    1410    485.50541    163826.15    72.378398    72.378399    36.110595          120    18945.868    18276.821   -36614.688    2294.3506   -968.57216   -4.8815132    72.378398    62.681532    36.110595    202.66719   -311463.48 
    1420    487.75529    163829.66    72.378915    72.378915    36.110853          120    19657.955    18135.078   -36639.833    2369.9512    -551.2945   -1637.4407    72.378915     62.68198    36.110853    384.40017   -311465.22 
    1430    488.85208    163833.18    72.379434    72.379434    36.111112          120    18421.577    18123.962   -36777.029    1680.3624   -162.92693   -765.75992    72.379434    62.682429    36.111112    -77.16342   -311465.08 
    1440    486.94557    163836.63    72.379941    72.379942    36.111365          120    17480.779    18944.518   -36435.482    1413.7569    1014.4648    -56.65158    72.379941    62.682869    36.111365   -3.3950564   -311458.97 
    1450    489.16162    163840.03    72.380443    72.380443    36.111615          120    18341.861    19070.228   -34783.747    772.08743     1514.565    -355.3236    72.380443    62.683303    36.111615    876.11381   -311460.62 
    1460    488.83827     163843.6    72.380969    72.380969    36.111878          120    17568.525    18875.354   -34487.493    554.58049    1087.2518   -36.821698    72.380969    62.683758    36.111878    652.12862   -311457.88 
    1470    492.01584    163847.28    72.381511    72.381511    36.112148          120    16986.524    18434.961   -36355.924     788.9056    1033.3474   -203.81539    72.381511    62.684228    36.112148   -311.47979   -311462.05 
    1480    488.22583     163850.8    72.382029    72.382029    36.112407          120    17972.713    17092.868   -36856.098    1466.0697    75.300988   -778.35897    72.382029    62.684676    36.112407   -596.83893   -311451.68 
    1490    491.47195    163854.06    72.382509     72.38251    36.112646          120    18513.488    17791.618   -37038.644    998.31522     662.0932   -447.17609    72.382509    62.685092    36.112646   -244.51268   -311455.72 
    1500    490.29423    163857.16    72.382965    72.382966    36.112874          120    17853.513    18130.258   -37232.489    1405.1529    1582.6168   -423.03283    72.382965    62.685487    36.112874   -416.23944   -311450.95 
    1510    492.64378    163860.09    72.383396    72.383396    36.113089          120    18447.396    18984.074   -37447.062    948.28432    1752.2414   -677.77174    72.383396     62.68586    36.113089   -5.1975684   -311453.04 
    1520     492.5308    163862.96    72.383818    72.383819    36.113299          120    18607.148    20090.325   -36449.663    1361.6224    1708.0292    -483.6696    72.383818    62.686226    36.113299    749.26978   -311450.64 
    1530    496.04951    163865.97    72.384263    72.384263    36.113521          120    18306.349    19698.787   -35941.562    2083.7013    737.25322   -115.27651    72.384263    62.686611    36.113521    687.85766   -311455.21 
    1540    489.00157    163869.14     72.38473     72.38473    36.113754          120    18228.081    18736.327   -36456.871     1952.423    1100.7262    574.96139     72.38473    62.687015    36.113754     169.1789   -311439.51 
    1550    495.12822    163872.32    72.385197    72.385197    36.113987          120    18896.253    17499.061   -36031.032    2351.2802    547.58249    485.73024    72.385197     62.68742    36.113987    121.42752   -311449.81 
    1560    495.27684    163875.45    72.385657    72.385658    36.114217          120    19538.717    17941.174   -37132.484    2765.7443    159.19155     471.1057    72.385657    62.687819    36.114217    115.80229   -311447.97 
    1570    493.39638    163878.56    72.386116    72.386117    36.114446          120    19665.153    18987.375   -37190.372    2276.6456    59.944154   -339.25774    72.386116    62.688216    36.114446    487.38546   -311442.92 
    1580    497.68224     163881.8    72.386593    72.386594    36.114684          120    20249.002      19977.9   -35144.131    1394.8803    1105.7285    77.187999    72.386593    62.688629    36.114684    1694.2571   -311449.42 
    1590    498.33866    163885.47    72.387133    72.387133    36.114953          120    19997.914     19856.09   -34879.263     1246.775    2018.2531    702.37429    72.387133    62.689097    36.114953    1658.2471    -311449.8 
    1600    495.48266    163889.57    72.387738    72.387738    36.115255          120    19872.459    19093.824   -35544.486    578.32586    1880.2139    563.84952    72.387738     62.68962    36.115255    1140.5989   -311443.48 
    1610    498.90825    163893.95    72.388381    72.388382    36.115576          120    19392.883    18211.393   -37335.104    1225.0635     1758.735    709.54902    72.388381    62.690178    36.115576    89.723898   -311449.68 
    1620    501.72027    163898.28     72.38902     72.38902    36.115894          120    18438.977    18138.242    -37265.17    2281.0127    1269.5958    793.70863     72.38902    62.690731    36.115894   -229.31727   -311454.73 
    1630    492.86317    163902.47    72.389636    72.389636    36.116202          120    18307.031    18833.995   -37431.102    2724.7709    1011.9075   -204.37592    72.389636    62.691264    36.116202   -96.691824   -311437.59 
    1640    501.01235    163906.55    72.390237    72.390238    36.116502          120    18197.296    18274.214   -36146.365    1920.3004    1072.5293   -199.70686    72.390237    62.691785    36.116502    108.38178    -311453.3 
    1650    493.01365    163910.57    72.390828    72.390829    36.116797          120    17658.905    18169.197   -36507.671    1515.2148    83.627114    3.8262898    72.390828    62.692297    36.116797   -226.52285   -311438.52 
    1660    499.35356     163914.4    72.391392    72.391393    36.117078          120    17832.335    17638.869   -38060.682    1079.4825    370.59527    80.205705    72.391392    62.692785    36.117078   -863.15922   -311451.86 
    1670    495.47203    163917.94    72.391914    72.391914    36.117338          120    18622.615    18815.834    -37036.07    1583.0786    99.072892    -736.8348    72.391914    62.693237    36.117338    134.12637   -311445.76 
    1680    493.85795    163921.41    72.392425    72.392426    36.117593          120    19090.467     19096.29   -37449.713    1773.7518    762.25678   -1296.9284    72.392425     62.69368    36.117593    245.68123   -311443.74 
    1690    494.68654    163924.89    72.392937    72.392938    36.117849          120    19485.023    19255.408   -37653.953    2104.3518    1090.4153   -1155.3776    72.392937    62.694123    36.117849    362.15918   -311446.91 
    1700     497.0046    163928.39    72.393452    72.393452    36.118106          120      18159.6    19073.169    -38194.52    2084.9221    760.90148    -428.4585    72.393452    62.694569    36.118106   -320.58368   -311453.25 
    1710    493.42724    163931.72    72.393942    72.393943     36.11835          120    16636.107    18395.033   -38540.127    2223.6347    1601.0699    -574.2797    72.393942    62.694994     36.11835   -1169.6622   -311449.12 
    1720    494.05055    163934.66    72.394375    72.394375    36.118566          120    17328.522    17968.461    -37665.03    1058.7464    1400.9639   -1644.9003    72.394375    62.695368    36.118566   -789.34909   -311451.69 
    1730    489.55937    163937.28    72.394761    72.394761    36.118759          120    17627.781    17937.305   -36933.323    1202.3663    1159.4621   -1631.9227    72.394761    62.695703    36.118759   -456.07873   -311445.36 
    1740    491.11327     163939.7    72.395116    72.395117    36.118936          120     18296.68    17522.203   -36459.109    1668.5255    1136.4566   -1207.2529    72.395116    62.696011    36.118936   -213.40895   -311450.93 
    1750    497.15017    163941.98    72.395452    72.395452    36.119104          120    18193.246     17952.85   -36278.402    1570.9003    926.51804    -746.1621    72.395452    62.696301    36.119104    -44.10185   -311464.57 
    1760    491.21751    163944.19    72.395777    72.395778    36.119266          120    18078.844    18213.304   -36882.511    1895.8115    769.78043   -534.54569    72.395777    62.696583    36.119266   -196.78757   -311455.37 
    1770    489.12731    163946.31     72.39609     72.39609    36.119422          120    17563.153    18444.829   -36119.685    2281.9737     847.2831   -875.71705     72.39609    62.696854    36.119422   -37.234481   -311453.81 
    1780    492.50904    163948.35     72.39639     72.39639    36.119572          120    16940.702    18670.503   -37275.481     2221.557    1865.4511   -393.79951     72.39639    62.697113    36.119572   -554.75865   -311462.76 
    1790    489.23127    163950.21    72.396665    72.396665    36.119709          120    17857.281    19025.974   -37317.917    1591.1015    1053.4912   -1078.7089    72.396665    62.697351    36.119709   -144.88723   -311458.31 
    1800    487.46403       163952    72.396928    72.396928     36.11984          120    19162.433    19223.384   -36236.616    1407.7148    458.84614   -435.96527    72.396928    62.697579     36.11984    716.40007   -311457.87 
    1810    489.72376    163953.96    72.397216    72.397216    36.119984          120    18619.774    19574.653   -35255.983    1328.9492    529.42939   -975.57081    72.397216    62.697829    36.119984    979.48154    -311465.3 
    1820    489.62257    163956.14    72.397537    72.397538    36.120144          120    17639.872     18394.51   -36700.553    1318.0244    389.60054   -738.65171    72.397537    62.698107    36.120144   -222.05691   -311467.31 
    1830    489.55188    163958.23    72.397845    72.397845    36.120297          120    17104.179    18524.563   -37798.026    2499.9192    625.54194   -377.46329    72.397845    62.698373    36.120297   -723.09455   -311469.82 
    1840    488.64343    163960.06    72.398114    72.398115    36.120432          120    17191.669    19064.632   -38018.224    2059.2527    664.64447   -730.56905    72.398114    62.698607    36.120432   -587.30773   -311470.78 
    1850    489.01809     163961.7    72.398355    72.398356    36.120552          120    18203.289    19426.325   -36791.682    2203.2589    891.88243   -594.38709    72.398355    62.698815    36.120552    279.31062   -311473.38 
    1860    480.00433    163963.36    72.398599      72.3986    36.120674          120    19391.966    18407.651   -37018.703    2370.8757     1020.227   -198.98934    72.398599    62.699027    36.120674     260.3049   -311458.41 
    1870    483.35946    163965.04    72.398846    72.398847    36.120797          120    18452.607    18148.485   -38880.294    1153.6316    667.61302   -330.14494    72.398846    62.699241    36.120797    -759.7339   -311467.44 
    1880    484.45515    163966.45    72.399055    72.399055    36.120901          120    16902.813    18089.461   -39319.577    693.09276    71.366211   -666.09624    72.399055    62.699421    36.120901   -1442.4343   -311471.07 
    1890    485.73484     163967.4    72.399195    72.399195    36.120971          120     16657.33    17425.642    -38482.87    1652.5641    638.23483   -78.227574    72.399195    62.699542    36.120971   -1466.6324   -311475.04 
    1900    484.55099    163967.89    72.399266    72.399267    36.121007          120    17991.493    16931.953    -37435.22    1114.7807    1335.1282    250.68285    72.399266    62.699604    36.121007   -837.25825   -311474.52 
    1910    484.71629    163968.13    72.399301    72.399301    36.121024          120    18744.019    18668.359   -36553.848    539.16443    1044.1611    780.85551    72.399301    62.699634    36.121024    286.17634   -311475.86 
    1920     485.4187    163968.41    72.399343    72.399344    36.121045          120     18847.66    18525.141     -37070.1    800.36965    619.26263   -170.09673    72.399343    62.699671    36.121045    100.90035    -311476.9 
    1930    483.61249    163968.72    72.399389    72.399389    36.121068          120    17249.112    17261.484   -37226.841    827.03426     963.7685   -1091.1508    72.399389     62.69971    36.121068   -905.41505   -311474.47 
    1940    484.25316    163968.73     72.39939    72.399391    36.121068          120    16348.496    16147.562   -38061.848    1445.6076    375.80942   -953.61347     72.39939    62.699712    36.121068   -1855.2635   -311476.29 
    1950     482.6306    163968.19    72.399311    72.399311    36.121029          120    17096.433    16866.376   -38396.533    1391.8137   -23.516223    -544.9595    72.399311    62.699643    36.121029   -1477.9079   -311473.49 
    1960    483.17913    163967.19    72.399163    72.399163    36.120955          120    16761.647    18440.875   -37939.204    1418.1626    30.986126   -724.59276    72.399163    62.699515    36.120955   -912.22727   -311474.27 
    1970    479.22325    163965.91    72.398975    72.398975    36.120861          120    16859.612    18373.644   -36801.531    1383.0462    -53.52381   -991.70719    72.398975    62.699352    36.120861    -522.7584   -311466.18 
    1980    488.39488    163964.47    72.398763    72.398763    36.120756          120    15634.043    18762.774   -36320.808    1572.2188    1417.8445   -473.59511    72.398763    62.699169    36.120756   -641.33043    -311482.6 
    1990    483.98763    163962.85    72.398525    72.398525    36.120637          120    15769.039     18760.53   -36825.161     1217.041    1428.4909   -358.11479    72.398525    62.698962    36.120637   -765.19724   -311473.07 
    2000    484.51545    163961.02    72.398256    72.398256    36.120502          120    16361.385      17659.7   -36868.884    1479.5214    694.42545    -623.5147    72.398256    62.698729    36.120502   -949.26653   -311473.09 
    2010    486.13562    163958.93    72.397948    72.397948    36.120349          120    16414.966    17517.636   -35770.298    1508.5681    816.73718    34.238064    72.397948    62.698463    36.120349   -612.56555   -311475.15 
    2020    483.47388    163956.69    72.397617    72.397618    36.120184          120    17675.423    18185.035   -35932.289    1330.1649     1641.636   -994.67039    72.397617    62.698176    36.120184   -23.943408   -311468.44 
    2030     488.9149    163954.47    72.397291    72.397291    36.120021          120    17978.119    19427.189   -36411.438    1235.1805    1747.5703   -1025.6291    72.397291    62.697894    36.120021    331.28987   -311477.34 
    2040    487.32722    163952.41    72.396987    72.396988     36.11987          120    17493.882    19745.606   -35663.407    1281.9185    1642.2655   -972.89128    72.396987    62.697631     36.11987    525.36003   -311472.42 
    2050    484.90195     163950.5    72.396706    72.396706    36.119729          120    16943.472    18222.169   -37011.241    2274.2378    2303.5424   -807.07765    72.396706    62.697387    36.119729   -615.20021   -311466.24 
    2060    490.88789    163948.46    72.396406    72.396406     36.11958          120    16786.294    18922.367   -37461.294    1586.1154    1195.0123     260.1254    72.396406    62.697127     36.11958   -584.21099   -311476.38 
    2070    488.94796    163946.26    72.396082    72.396082    36.119418          120    16652.239    19622.782   -38642.964    2058.0282     1595.725    617.29443    72.396082    62.696847    36.119418    -789.3142   -311470.04 
    2080    486.55362    163943.85    72.395727    72.395728    36.119241          120    17159.085    18190.425   -38573.091    1872.6282    1098.4755    231.21973    72.395727     62.69654    36.119241    -1074.527   -311464.09 
    2090    489.49807    163941.16    72.395332    72.395332    36.119044          120    17200.732    17584.708   -38282.675    1607.0685    362.91449   -167.33808    72.395332    62.696197    36.119044   -1165.7447   -311467.39 
    2100    487.23726    163938.17    72.394891    72.394892    36.118824          120    17224.187    18447.985   -37402.167    1732.2196    662.82397   -228.25638    72.394891    62.695816    36.118824   -576.66493   -311460.74 
    2110    491.57281    163935.07    72.394435    72.394435    36.118596          120    17908.837    20203.362    -35712.74    1285.0556    718.16574   -707.19599    72.394435     62.69542    36.118596    799.81956   -311467.24 
    2120    494.49542    163932.24    72.394019     72.39402    36.118389          120    17966.383    20762.732   -34948.917    954.38371    1228.0278   -627.06203    72.394019     62.69506    36.118389    1260.0661   -311471.06 
    2130      490.727    163929.86    72.393668    72.393669    36.118214          120    17430.389    19854.283   -34400.684    1367.2096    1828.7001   -1468.4743    72.393668    62.694756    36.118214    961.32895   -311461.56 
    2140    493.99344     163927.8    72.393365    72.393366    36.118063          120    17481.614    18855.144   -36894.151    2215.0744    1756.2254   -1611.9234    72.393365    62.694494    36.118063   -185.79736   -311465.91 
    2150    493.07734    163925.76    72.393065    72.393065    36.117913          120    17620.865    18999.906   -37117.597    2444.4076    1428.9374   -1400.6184    72.393065    62.694234    36.117913   -165.60855   -311462.66 
    2160    491.24019     163923.7    72.392762    72.392762    36.117761          120    17769.805    18572.306   -36349.057    2204.4796   -22.658875   -1404.0419    72.392762    62.693971    36.117761   -2.3154297   -311457.12 
    2170    499.25073    163921.71    72.392468    72.392469    36.117615          120    18696.373    19307.826   -35746.888    1886.2281   -82.186263   -1365.3388    72.392468    62.693717    36.117615    752.43713   -311470.96 
    2180    494.53172       163920    72.392217    72.392218     36.11749          120    19209.619    20256.639   -35244.746    2275.8425    620.57157   -437.83769    72.392217      62.6935     36.11749    1407.1709   -311460.85 
    2190    495.16067    163918.78    72.392037    72.392038      36.1174          120    19792.272    19689.021   -34150.254    1953.4796    421.65146   -237.02946    72.392037    62.693344      36.1174    1777.0129   -311460.68 
    2200    498.26463    163918.09    72.391936    72.391937     36.11735          120    19605.847    18848.232   -36098.047    2506.5772    415.17929   -174.44902    72.391936    62.693256     36.11735    785.34408   -311465.54 
    2210    489.22593    163917.68    72.391875    72.391876    36.117319          120    18173.248    18779.007   -37001.069    2295.1659    496.72956    10.006387    72.391875    62.693204    36.117319   -16.271238   -311447.13 
    2220    495.21521    163917.27    72.391816    72.391816    36.117289          120    17500.442    19512.471   -37923.675    1277.2429    292.45223   -1439.1862    72.391816    62.693152    36.117289   -303.58767   -311458.15 
    2230    496.33234    163916.78    72.391744    72.391744    36.117253          120    17108.201    20569.826    -37787.63    2123.9827    776.82006   -1982.3182    72.391744     62.69309    36.117253   -36.534552   -311459.62 
    2240    492.23273    163916.31    72.391674    72.391674    36.117219          120     17813.54    20316.585   -36223.879    2359.8936    419.33513   -2657.2992    72.391674    62.693029    36.117219    635.41526   -311451.57 
    2250    496.22503       163916    72.391629    72.391629    36.117196          120    17973.544    19365.129   -37694.073    1342.6337    721.97839   -1556.0472    72.391629     62.69299    36.117196   -118.46644   -311459.41 
    2260    494.18433     163915.7    72.391583    72.391584    36.117173          120    18483.039    18721.694   -37679.708    1214.9769     718.1494   -914.90609    72.391583    62.692951    36.117173    -158.3251    -311455.8 
[...]
   99200    492.59271    164638.84    72.497883    72.497884    36.170208          120    18692.258    20942.802   -35044.019    1026.7829   -447.53699   -419.93978    72.497883    62.785009    36.170208    1530.3469   -311573.55 
   99210    486.60344    164635.69    72.497421    72.497421    36.169977          120    18613.439    22047.307   -35049.286    1149.1367   -329.33825   -143.29964    72.497421    62.784609    36.169977    1870.4869   -311562.46 
   99220    492.32522    164633.12    72.497044    72.497045    36.169789          120    18776.472    21439.855   -34739.501    341.53789    46.466529   -165.04754    72.497044    62.784282    36.169789    1825.6083   -311572.71 
   99230    489.49125    164631.16    72.496756    72.496757    36.169646          120    19781.195    21675.767   -35324.775    123.00725    133.32681    491.89844    72.496756    62.784033    36.169646    2044.0625    -311567.7 
   99240    486.67038    164629.81    72.496557    72.496558    36.169546          120    19178.657    19563.161   -36888.501    232.99927    731.18762    1084.2341    72.496557    62.783861    36.169546    617.77252   -311562.39 
   99250    489.09229    164628.67     72.49639     72.49639    36.169463          120    19146.499    18222.766   -38275.045     162.9014    1092.6053    611.47949     72.49639    62.783716    36.169463   -301.92663   -311566.62 
   99260    488.76635    164627.44    72.496209     72.49621    36.169373          120    18566.328     19074.24   -38594.833    384.17413    141.96381    1412.2292    72.496209     62.78356    36.169373   -318.08839   -311565.23 
   99270    487.61002    164626.12    72.496016    72.496017    36.169277          120    18184.266    20576.043   -37417.888     823.9852   -300.79515   -121.98357    72.496016    62.783393    36.169277    447.47372   -311562.43 
   99280    490.14858    164624.95    72.495844    72.495845    36.169191          120    18872.443    20405.319   -35544.071     950.5291   -136.28559   -352.93945    72.495844    62.783243    36.169191    1244.5637   -311566.93 
   99290    489.54375    164624.11    72.495721    72.495721    36.169129          120    18952.072    19368.898   -36643.543    512.87505    71.936386    135.71732    72.495721    62.783136    36.169129    559.14206   -311565.19 
   99300    487.57352    164623.48    72.495628    72.495629    36.169083          120     18956.16    19432.497   -36664.551      234.719    332.55832   -11.123609    72.495628    62.783056    36.169083    574.70178   -311561.13 
   99310    487.88086    164623.01    72.495559     72.49556    36.169049          120    18507.021    19139.894   -37305.196    15.000349   -65.115157    300.04821    72.495559    62.782997    36.169049    113.90664   -311561.28 
   99320    491.25731    164622.58    72.495497    72.495497    36.169017          120    18041.807    20020.395   -37348.919   -250.31706   -122.28164    832.73836    72.495497    62.782942    36.169017    237.76081   -311567.16 
   99330    493.09687    164622.26     72.49545     72.49545    36.168994          120    19163.176    21059.001   -36839.041    1250.0769   -50.928088    105.61571     72.49545    62.782902    36.168994     1127.712    -311569.9 
   99340    495.14474    164622.31    72.495458    72.495458    36.168998          120    19701.758    21894.268   -36467.062    1679.4702    324.23452   -145.02121    72.495458    62.782909    36.168998    1709.6544   -311572.93 
   99350    488.18739     164622.9    72.495543    72.495543     36.16904          120    19815.066    22056.171   -37105.901     1580.729    523.96429    220.10767    72.495543    62.782982     36.16904    1588.4453   -311558.92 
   99360     491.3336       164624    72.495705    72.495706    36.169121          120    20735.196    21482.137   -36968.452    851.34071    1754.9015    18.128658    72.495705    62.783123    36.169121    1749.6269   -311564.31 
   99370     488.0738    164625.68    72.495952    72.495952    36.169244          120    20865.455     20820.12   -35771.774    793.80748    652.89043    267.99703    72.495952    62.783336    36.169244    1971.2673   -311556.97 
   99380    490.60577       164628    72.496292    72.496293    36.169414          120    20552.557    20883.132   -35520.957    610.45727    512.74842   -318.21087    72.496292    62.783631    36.169414    1971.5776   -311560.89 
   99390    491.54825    164630.98     72.49673    72.496731    36.169633          120    19833.541    21806.473   -34461.297    1369.8467     272.5313   -70.646533     72.49673     62.78401    36.169633    2392.9055   -311561.05 
   99400    494.99286    164634.74    72.497282    72.497283    36.169908          120    19312.687    22376.297   -34338.184    1431.0228   -223.61392    727.46589    72.497282    62.784489    36.169908    2450.2664   -311566.31 
   99410    490.81375     164639.3    72.497951    72.497951    36.170242          120    19274.368    21372.589   -35015.746    1498.0328    184.59747    52.801808    72.497951    62.785068    36.170242    1877.0702   -311556.82 
   99420    491.77036    164644.45    72.498707    72.498708    36.170619          120    18408.591     19824.08   -36721.845    1881.0398    -315.8826    1116.5763    72.498707    62.785723    36.170619    503.60843   -311556.74 
   99430    495.88337    164649.81    72.499493    72.499494    36.171011          120    17895.398    19913.611   -37862.718    1247.6978   -275.36791    1269.0741    72.499493    62.786404    36.171011    -17.90298    -311562.4 
   99440    493.45224     164655.2    72.500285    72.500286    36.171406          120    19548.466    19959.437   -38288.814    865.98455    223.53544    -126.1985    72.500285    62.787089    36.171406    406.36278    -311555.3 
   99450    497.11971    164660.71    72.501094    72.501094     36.17181          120    19292.782    19136.337   -38735.343    1047.9985    866.89244    464.54142    72.501094     62.78779     36.17181   -102.07477   -311560.46 
   99460    496.98122    164666.25    72.501906    72.501907    36.172215          120    18629.998    19354.991   -37352.284    761.03248    1563.1138    881.05944    72.501906    62.788493    36.172215    210.90179   -311557.72 
   99470    492.55688    164671.84    72.502727    72.502728    36.172625          120    18446.414    19224.652   -37202.801    752.54917    930.30695    556.00215    72.502727    62.789204    36.172625    156.08845   -311547.56 
   99480    493.70913    164677.54    72.503563    72.503563    36.173042          120    18759.128    20090.276   -37023.927    742.04497   -799.17254    833.45129    72.503563    62.789928    36.173042    608.49247   -311548.42 
   99490    496.40588    164683.43    72.504428    72.504428    36.173473          120    18172.788    19151.467   -35828.435    442.42568    25.416086    1090.9349    72.504428    62.790677    36.173473    498.60647   -311552.95 
   99500    495.04999     164689.5    72.505319    72.505319    36.173918          120    18249.859    18662.609   -36457.216    285.99602    1151.1788    1393.4433    72.505319    62.791449    36.173918    151.75084   -311549.83 
   99510    494.77503    164695.65    72.506221    72.506222    36.174368          120     17529.83    19167.952   -38114.438    7.8646066    861.57023    1473.6851    72.506221     62.79223    36.174368   -472.21836   -311548.49 
   99520    496.89101    164701.65    72.507101    72.507102    36.174807          120    16426.047    18643.476   -39779.951    240.08009    651.91295    1447.5869    72.507101    62.792992    36.174807   -1570.1428   -311552.04 
   99530    495.73533    164707.18    72.507913    72.507914    36.175212          120    16846.885    18709.983   -39598.154    377.99114   -202.26071    81.447245    72.507913    62.793696    36.175212   -1347.0952   -311550.16 
   99540    499.15705    164712.33    72.508669    72.508669    36.175589          120    18133.279    19173.081   -37858.092     1072.777    299.03035   -910.21747    72.508669     62.79435    36.175589   -183.91051   -311557.03 
   99550    499.57301    164717.44    72.509419    72.509419    36.175963          120     19406.76    20178.037   -36565.798    932.27162    780.41712   -1148.2168    72.509419    62.794999    36.175963     1006.333   -311558.65 
   99560    491.71315    164722.86    72.510214    72.510214     36.17636          120    18617.026    20889.502   -35582.416    1272.7467    422.69234   -43.270534    72.510214    62.795688     36.17636    1308.0372   -311544.86 
   99570     495.8909    164728.69     72.51107     72.51107    36.176787          120    19396.485    19947.186   -36603.812    1704.7303   -356.82639    -418.2504     72.51107    62.796429    36.176787    913.28631    -311553.2 
   99580    497.34018    164734.84    72.511971    72.511972    36.177237          120    18011.114    19522.856   -36856.681    1585.8368    791.88185   -290.69352    72.511971     62.79721    36.177237    225.76307   -311557.58 
   99590    498.87152    164741.08    72.512887    72.512887    36.177693          120    16761.966     19359.97   -37266.204    1433.4419    602.28993    855.50055    72.512887    62.798003    36.177693   -381.42298    -311561.9 
   99600    488.43975    164747.23    72.513789     72.51379    36.178144          120    17105.544     20404.37    -38433.79    671.61156    469.61463    915.99109    72.513789    62.798784    36.178144   -307.95892   -311542.84 
   99610    493.56834    164753.29    72.514679    72.514679    36.178588          120    16737.171    19742.403   -38008.443    837.61148    261.22644    459.61243    72.514679    62.799555    36.178588   -509.62285   -311554.59 
   99620    493.55653     164759.2    72.515546    72.515547     36.17902          120    17076.785    18418.696    -38178.93    590.75292   -223.63505   -204.50171    72.515546    62.800306     36.17902   -894.48313   -311555.81 
   99630    493.14022    164764.88    72.516378    72.516379    36.179435          120    17851.193    18961.587   -38155.936   -66.431427   -403.96894   -85.409043    72.516378    62.801026    36.179435   -447.71876    -311556.2 
   99640     493.1341    164770.41    72.517191    72.517191    36.179841          120    18766.537    19450.161   -38857.155    144.78684    -688.0507   -496.24383    72.517191     62.80173    36.179841   -213.48551   -311557.51 
   99650    490.14532    164775.88    72.517992    72.517993    36.180241          120    17908.988    19160.738   -38549.489   -41.426443    1071.5402   -301.21387    72.517992    62.802424    36.180241   -493.25425   -311552.54 
   99660    495.56808    164781.19    72.518772    72.518773     36.18063          120     16473.16    19338.231   -38594.421    910.18668     629.8847    136.66017    72.518772      62.8031     36.18063   -927.67634   -311563.92 
   99670    493.79108    164786.25    72.519514    72.519515       36.181          120    16390.419    19545.681    -38588.08    341.29577    237.27674    548.06384    72.519514    62.803742       36.181   -883.99343   -311561.47 
   99680    492.71143    164791.03    72.520215    72.520216     36.18135          120    16793.842    18545.332   -38811.461    39.424402    161.68491    1514.0419    72.520215    62.804349     36.18135   -1157.4291   -311559.68 
   99690    494.41987    164795.48    72.520868    72.520868    36.181675          120    17810.072    17759.351   -37902.366    705.98062    278.25159   -187.31683    72.520868    62.804915    36.181675   -777.64746   -311564.05 
   99700    490.63397    164799.71    72.521489     72.52149    36.181985          120    18183.992    18692.229   -37069.293    750.41332   -325.27051   -265.52379    72.521489    62.805452    36.181985   -64.357554    -311557.5 
   99710    492.72583     164803.9    72.522103    72.522103    36.182292          120    18030.808    18482.776   -38003.411    898.67267   -296.15903    494.92648    72.522103    62.805984    36.182292   -496.60901   -311562.59 
   99720    491.55215    164807.93    72.522694    72.522695    36.182587          120    16675.198    18663.411   -39075.268    638.38782    517.53274    773.39426    72.522694    62.806496    36.182587   -1245.5532   -311560.51 
   99730    494.15582    164811.57    72.523228    72.523229    36.182853          120    15804.082     18721.23   -40754.649    832.24568    321.26619    994.22055    72.523228    62.806958    36.182853   -2076.4458   -311566.48 
   99740    487.57023    164814.58    72.523669     72.52367    36.183073          120    16257.012    17795.659   -39852.093    1182.3931    872.40819    -42.82213    72.523669    62.807341    36.183073   -1933.1405    -311555.3 
   99750    490.36483       164817    72.524024    72.524025     36.18325          120    16009.977    18274.287   -37922.941    1298.9261    205.43243    -488.7193    72.524024    62.807648     36.18325   -1212.8922   -311561.26 
   99760    490.34277    164819.04    72.524324    72.524324      36.1834          120    16780.625    18987.389    -37483.66    1412.7421    318.35947    -220.0867    72.524324    62.807907      36.1834   -571.88207   -311561.19 
   99770    488.39628     164820.9    72.524596    72.524597    36.183535          120    17728.204    18747.419   -37320.611    1030.6819    580.20841    646.06096    72.524596    62.808143    36.183535    -281.6626   -311558.97 
   99780    490.95627    164822.67    72.524856    72.524857    36.183665          120    17817.925    18956.152   -36672.799    635.22629    924.17925    1115.0497    72.524856    62.808368    36.183665    33.759026   -311564.06 
   99790    495.60824    164824.43    72.525114    72.525115    36.183794          120    16454.431     19180.84   -37795.213      671.888     734.3867    -267.6984    72.525114    62.808592    36.183794   -719.98061   -311573.63 
   99800    486.78248    164825.97     72.52534    72.525341    36.183907          120    16482.817    17669.251   -38892.445    153.78442   -314.82262    115.94144     72.52534    62.808788    36.183907   -1580.1256   -311557.43 
   99810    489.80873    164827.03    72.525496    72.525497    36.183984          120    16735.212    17565.818   -38026.132   -114.92831    449.03132    275.86205    72.525496    62.808923    36.183984   -1241.7006   -311563.64 
   99820    492.54766    164827.66    72.525588    72.525589    36.184031          120    16219.425    17532.055   -38118.827   -66.470578    407.70684    -258.3378    72.525588    62.809003    36.184031   -1455.7824    -311569.7 
   99830    484.66401    164827.83    72.525613    72.525613    36.184043          120    16097.853    17994.385   -38931.771   -393.63478    481.93154    243.00859    72.525613    62.809024    36.184043   -1613.1774   -311554.49 
   99840    487.45639    164827.48    72.525561    72.525562    36.184017          120    16866.358    18194.381   -38672.832    162.66045   -31.100113   -263.28292    72.525561    62.808979    36.184017    -1204.031   -311560.52 
   99850    491.25869    164826.71    72.525449     72.52545    36.183961          120    16979.472    18582.104   -38760.054   -916.40458   -1011.7687   -809.56645    72.525449    62.808882    36.183961   -1066.1593   -311568.08 
   99860      491.798    164825.58    72.525284    72.525284    36.183878          120    16770.639    18629.689    -38863.09   -829.32651    1.7745013   -566.69155    72.525284    62.808739    36.183878   -1154.2542   -311570.02 
   99870    488.87443    164824.08    72.525063    72.525064    36.183769          120    17295.546    18351.021   -38917.894    286.34004    709.30233    344.54558    72.525063    62.808548    36.183769   -1090.4422   -311565.62 
   99880    487.84953    164822.22     72.52479    72.524791    36.183632          120     17573.41     18876.26   -39958.237    246.14775   -321.93109    574.66911     72.52479    62.808311    36.183632   -1169.5221   -311564.06 
   99890    489.82519    164819.99    72.524463    72.524463    36.183469          120    17712.297    18357.255   -38858.226    655.32161   -316.28272   -156.80136    72.524463    62.808028    36.183469   -929.55791   -311567.58 
   99900    485.91668    164817.44    72.524089    72.524089    36.183282          120    17484.596    18991.945   -39393.541    1169.0704   -43.746215    1095.2676    72.524089    62.807704    36.183282    -972.3333   -311561.39 
   99910    488.82094    164814.54    72.523664    72.523665     36.18307          120    16302.854    17654.696    -39506.04    1011.2191    184.72886    1661.8569    72.523664    62.807336     36.18307   -1849.4968    -311567.1 
   99920    489.25756    164811.05    72.523151    72.523152    36.182815          120    15397.398    16804.458   -40113.821    1258.9729   -837.67502    882.19764    72.523151    62.806892    36.182815   -2637.3217   -311567.94 
   99930    489.39597    164806.71    72.522515    72.522516    36.182497          120    15281.213    18630.841   -41284.768    832.80145   -685.79683    307.83421    72.522515    62.806341    36.182497   -2457.5713   -311568.34 
   99940    490.80905    164801.57    72.521761    72.521762    36.182121          120    16358.968    19068.508   -40011.467    876.32991    -195.7986   -165.70433    72.521761    62.805688    36.182121   -1527.9969    -311571.2 
   99950    488.99788    164795.94    72.520936    72.520936    36.181709          120    17304.688    19900.388   -37467.579    1434.0727    809.75125   -950.80621    72.520936    62.804973    36.181709   -87.500903   -311568.28 
   99960     487.2243    164790.21    72.520095    72.520095     36.18129          120    17372.598    19363.568   -37545.479       1091.6    578.90854   -981.53152    72.520095    62.804245     36.18129   -269.77122   -311565.13 
   99970    486.41528    164784.36    72.519237    72.519238    36.180862          120    17335.767    18500.371    -37276.97    1049.3633    204.63137   -894.29236    72.519237    62.803502    36.180862   -480.27739   -311563.96 
   99980    489.55547    164778.31    72.518349    72.518349    36.180418          120    16467.788    17672.667   -38779.214    718.82997    671.04418    241.30631    72.518349    62.802733    36.180418   -1546.2533   -311569.71 
   99990    485.47496    164771.76    72.517388    72.517389    36.179939          120    15875.284    18471.224   -39479.359    261.91609    1022.7712    896.43582    72.517388    62.801901    36.179939   -1710.9503   -311562.65 
  100000    486.52553    164764.68     72.51635    72.516351    36.179422          120    17658.526    19393.627   -38541.973   -293.71058    1093.0482    892.41969     72.51635    62.801002    36.179422   -496.60666   -311564.75 
Loop time of 31897 on 1 procs for 100000 steps with 14848 atoms

Performance: 0.271 ns/day, 88.603 hours/ns, 3.135 timesteps/s
97.9% CPU use with 1 MPI tasks x no OpenMP threads

MPI task timing breakdown:
Section |  min time  |  avg time  |  max time  |%varavg| %total
---------------------------------------------------------------
Pair    | 25333      | 25333      | 25333      |   0.0 | 79.42
Bond    | 0.018304   | 0.018304   | 0.018304   |   0.0 |  0.00
Kspace  | 1124.6     | 1124.6     | 1124.6     |   0.0 |  3.53
Neigh   | 4751.4     | 4751.4     | 4751.4     |   0.0 | 14.90
Comm    | 46.508     | 46.508     | 46.508     |   0.0 |  0.15
Output  | 1.0685     | 1.0685     | 1.0685     |   0.0 |  0.00
Modify  | 628.9      | 628.9      | 628.9      |   0.0 |  1.97
Other   |            | 11.23      |            |       |  0.04

Nlocal:    14848 ave 14848 max 14848 min
Histogram: 1 0 0 0 0 0 0 0 0 0
Nghost:    46607 ave 46607 max 46607 min
Histogram: 1 0 0 0 0 0 0 0 0 0
Neighs:    9.98755e+06 ave 9.98755e+06 max 9.98755e+06 min
Histogram: 1 0 0 0 0 0 0 0 0 0

Total # of neighbors = 9987554
Ave neighs/atom = 672.653
Ave special neighs/atom = 0
Neighbor list builds = 16922
Dangerous builds = 0
 
All done!
Total wall time: 8:56:47
