LAMMPS (16 Mar 2018)
Reading data file ...
  triclinic box = (0 0 0) to (9.208 7.97436 18.376) with tilt (-4.604 0 0)
  1 by 1 by 1 MPI processor grid
  reading atoms ...
  116 atoms
Finding 1-2 1-3 1-4 neighbors ...
  special bond factors lj:   0          0          0         
  special bond factors coul: 0          0          0         
  0 = max # of 1-2 neighbors
  0 = max # of 1-3 neighbors
  0 = max # of 1-4 neighbors
  1 = max # of special neighbors
Replicating atoms ...
  triclinic box = (0 0 0) to (73.664 63.7949 36.752) with tilt (-36.832 0 0)
  1 by 1 by 1 MPI processor grid
  14848 atoms
Finding 1-2 1-3 1-4 neighbors ...
  special bond factors lj:   0          0          0         
  special bond factors coul: 0          0          0         
  0 = max # of 1-2 neighbors
  0 = max # of 1-3 neighbors
  0 = max # of 1-4 neighbors
  1 = max # of special neighbors
  Time spent = 0.00538206 secs
PPPM initialization ...
WARNING: System is not charge neutral, net charge = -0.2048 (../kspace.cpp:302)
  using 12-bit tables for long-range coulomb (../kspace.cpp:321)
  G vector (1/distance) = 0.201681
  grid = 36 50 24
  stencil order = 5
  estimated absolute RMS force accuracy = 0.00105653
  estimated relative force accuracy = 7.33721e-05
  using double precision FFTs
  3d grid and FFT values/proc = 65395 43200
Neighbor list info ...
  update every 1 steps, delay 0 steps, check yes
  max neighbors/atom: 2000, page size: 100000
  master list distance cutoff = 15.3
  ghost atom cutoff = 15.3
  binsize = 7.65, bins = 15 9 5
  3 neighbor lists, perpetual/occasional/extra = 3 0 0
  (1) pair morse, perpetual
      attributes: half, newton on
      pair build: half/bin/newton/tri
      stencil: half/bin/3d/newton/tri
      bin: standard
  (2) pair buck, perpetual, copy from (1)
      attributes: half, newton on
      pair build: copy
      stencil: none
      bin: none
  (3) pair lj/cut/coul/long, perpetual, copy from (1)
      attributes: half, newton on
      pair build: copy
      stencil: none
      bin: none
Setting up Verlet run ...
  Unit style    : metal
  Current step  : 0
  Time step     : 0.001
Per MPI rank memory allocation (min/avg/max) = 145.7 | 145.7 | 145.7 Mbytes
Step Temp Volume Cella Cellb Cellc CellGamma Pxx Pyy Pzz Pxy Pxz Pyz Lx Ly Lz Press PotEng 
       0         1200    172711.88       73.664    73.664001       36.752          120   -189957.58   -190174.26   -261678.64    95.786324   -30.510356    40.813642       73.664    63.794896       36.752   -213936.82   -308813.26 
      10    780.07615    172696.61    73.661829    73.661829    36.750917          120   -179544.56   -179631.63   -224595.07    148.50152   -28.771536   -357.91122    73.661829    63.793016    36.750917   -194590.42   -308014.57 
      20    1095.8621     172653.1    73.655642    73.655643     36.74783          120   -162429.59   -162940.32    -159795.1    196.71502   -68.864614   -689.61511    73.655642    63.787658     36.74783   -161721.67   -308622.61 
      30    1187.2942    172586.42    73.646159     73.64616    36.743099          120   -116148.25   -116562.16   -80747.964   -190.48517   -848.59363   -615.85637    73.646159    63.779445    36.743099   -104486.13   -308792.28 
      40    966.32494    172504.71    73.634535    73.634535    36.737299          120   -70468.448     -71442.8   -8655.6246   -1648.7527   -931.90136   -484.00036    73.634535    63.769378    36.737299   -50188.957   -308353.56 
      50    1099.7162    172415.45    73.621832    73.621832    36.730962          120   -51078.968   -52211.352   -4662.5381    -350.0661   -254.32071   -766.45987    73.621832    63.758377    36.730962   -35984.286   -308593.31 
      60     1300.623    172320.97    73.608381    73.608382    36.724251          120   -48598.787    -47944.38   -54071.738   -1481.7864   -1487.7762   -892.30722    73.608381    63.746729    36.724251   -50204.968   -308963.93 
      70    1403.8954    172219.72    73.593962    73.593963    36.717057          120   -45988.833   -47628.795   -114861.31    -1975.131   -2143.3972   -625.19263    73.593962    63.734241    36.717057    -69492.98   -309158.64 
      80     1287.126    172109.26    73.578225    73.578226    36.709206          120   -47439.124   -50065.414   -154344.68   -1977.4744    -1843.968   -528.58361    73.578225    63.720613    36.709206   -83949.738   -308939.38 
      90    1093.1104    171987.93    73.560931    73.560931    36.700577          120   -46450.656   -46188.107   -161895.72   -1357.2732    -2614.028   -2143.4462    73.560931    63.705635    36.700577   -84844.829   -308572.93 
     100    1139.6646    171856.12    73.542134    73.542134    36.691199          120   -30817.483   -29424.073   -141183.29   -1303.4449   -2240.9872   -2007.7633    73.542134    63.689357    36.691199   -67141.615   -308669.15 
     110    1271.5735    171716.72    73.522244    73.522245    36.681276          120   -13249.578   -12861.388    -106286.6    -2032.547   -684.08204   -2340.7375    73.522244    63.672132    36.681276   -44132.522   -308927.18 
     120    1292.8606    171573.51      73.5018      73.5018    36.671076          120   -3784.2108   -3697.7747   -64981.326   -1634.7671   -19.460627   -1665.3736      73.5018    63.654427    36.671076   -24154.437   -308973.15 
     130    1234.6271    171429.85    73.481279     73.48128    36.660838          120   -3006.0103   -1784.4329   -32489.588    -496.7077   -837.91039   -1561.8322    73.481279    63.636655    36.660838   -12426.677   -308869.45 
     140    1201.7146    171287.88    73.460989    73.460989    36.650715          120   -6714.1212    -6603.082   -20540.892   -733.58891    -1121.913   -2945.5801    73.460989    63.619083    36.650715   -11286.032   -308814.01 
     150    1222.5172    171148.16    73.441009     73.44101    36.640747          120   -13741.155   -13016.974   -36808.523   -1345.4692   -1295.0309   -2140.0716    73.441009     63.60178    36.640747   -21188.884   -308862.26 
     160    1276.5872    171009.75    73.421207    73.421208    36.630867          120   -21173.704   -18879.013    -65006.58   -1801.2622   -1554.3139   -3246.2691    73.421207    63.584631    36.630867   -35019.766   -308978.28 
     170    1291.8525    170871.17    73.401369    73.401369     36.62097          120   -23281.842   -23376.703   -92570.013   -1594.2946   -2505.5934   -3221.7808    73.401369    63.567451     36.62097    -46409.52   -309021.94 
     180    1239.5174    170731.33    73.381339     73.38134    36.610977          120   -21005.037   -21019.839   -108838.22   -410.51947   -2110.5873   -3160.5543    73.381339    63.550105    36.610977     -50287.7    -308938.4 
     190      1218.54    170590.14    73.361105    73.361106    36.600882          120   -19286.822   -17046.795   -110406.06   -590.47418    -4551.222   -2811.2693    73.361105    63.532582    36.600882   -48913.227   -308914.12 
     200    1233.0281    170448.32     73.34077    73.340771    36.590736          120   -14608.646   -14691.278   -96599.389    -1386.429   -3978.7809   -2682.8949     73.34077    63.514971    36.590736   -41966.438   -308955.63 
     210    1264.0511    170307.21    73.320526    73.320526    36.580636          120   -11193.261   -12531.457   -78921.277   -888.11408   -3539.8166    -2939.372    73.320526    63.497438    36.580636   -34215.332   -309029.29 
     220    1261.7048    170168.24    73.300577    73.300578    36.570683          120   -8191.0969   -8458.3694   -64024.636   -1958.6127   -2377.5695   -3627.2176    73.300577    63.480163    36.570683   -26891.367   -309037.97 
     230     1245.762     170032.6    73.281097    73.281097    36.560964          120   -9541.0359   -8635.9668   -56029.503   -1808.3092   -1929.6519   -5746.9342    73.281097    63.463292    36.560964   -24735.502   -309020.25 
     240    1244.3789    169900.78    73.262154    73.262155    36.551514          120      -9822.6   -9421.2851   -53036.695    -975.6461   -1121.8113   -5704.2032    73.262154    63.446887    36.551514   -24093.527   -309031.61 
     250    1249.9205    169772.85    73.243761    73.243762    36.542337          120   -11424.773   -11496.171   -59099.308   -141.67752   -1020.9399   -4737.0675    73.243761    63.430959    36.542337   -27340.084   -309055.61 
     260    1273.8874    169648.35    73.225853    73.225853    36.533402          120   -15538.821   -13553.807   -71269.566   -281.92071   -1180.9566    -5368.919    73.225853    63.415449    36.533402   -33454.064   -309116.56 
     270    1263.6064    169526.46    73.208312    73.208313    36.524651          120   -17334.187   -14523.927   -79881.654    -418.2969   -2016.3075   -4562.1633    73.208312    63.400259    36.524651   -37246.589    -309112.7 
     280    1255.0804    169406.61    73.191056    73.191056    36.516041          120   -17546.529   -15373.575   -85965.883    397.89381   -780.11376   -3467.9145    73.191056    63.385314    36.516041   -39628.662    -309112.6 
     290     1249.928    169288.48    73.174039     73.17404    36.507552          120   -15563.398   -12081.378   -83499.291    108.46548   -1699.2731   -3718.1877    73.174039    63.370577    36.507552   -37048.022    -309117.6 
     300    1245.2356     169172.3    73.157296    73.157296    36.499198          120   -12079.253   -9773.0491   -76619.765    9.8388159   -1889.6102   -4564.5488    73.157296    63.356077    36.499198   -32824.023    -309123.5 
     310    1253.6198    169058.53    73.140893    73.140893    36.491014          120   -9953.8384    -7729.299   -67002.268    323.88545   -2698.4404   -5310.6556    73.140893    63.341872    36.491014   -28228.469   -309153.42 
     320    1237.7716     168947.6    73.124892    73.124893    36.483031          120   -7312.0523   -6694.8963   -57358.926    601.56576   -1824.9388   -5104.3595    73.124892    63.328015    36.483031   -23788.625   -309136.83 
     330    1239.3985    168839.88    73.109347    73.109348    36.475276          120   -5476.0018   -4716.7713   -51396.347    952.01248   -731.21545   -5898.8568    73.109347    63.314552    36.475276   -20529.707   -309152.63 
     340    1240.4951    168735.48    73.094275    73.094276    36.467756          120   -5808.7286   -5573.8561   -54475.955    1185.3729   -572.56261   -5338.0768    73.094275      63.3015    36.467756   -21952.847   -309166.75 
     350    1253.1276    168633.98    73.079616    73.079617    36.460443          120   -7011.6913   -6114.5917   -58411.943    851.60469   -314.22947   -3519.5679    73.079616    63.288805    36.460443   -23846.075   -309203.79 
     360    1250.5177     168534.8    73.065287    73.065288    36.453294          120   -9409.5965   -7520.4855   -65379.337    1075.2252   -1709.3326   -4467.8557    73.065287    63.276395    36.453294   -27436.473   -309212.35 
     370    1242.5471    168437.28    73.051191    73.051192    36.446261          120   -8315.6932   -6179.5069   -70739.412    1895.1786   -1501.1199   -3658.0495    73.051191    63.264188    36.446261   -28411.537   -309210.57 
     380    1242.4938    168341.02    73.037273    73.037273    36.439317          120   -5894.6455   -4456.1635   -72936.924    1282.5004   -462.80656   -3768.0764    73.037273    63.252134    36.439317   -27762.578    -309223.8 
     390    1233.1358    168245.95    73.023521    73.023521    36.432456          120   -4991.8305   -1747.7403   -66785.881   -99.310479    602.00304   -3476.7472    73.023521    63.240225    36.432456   -24508.484   -309218.89 
     400    1228.6332    168152.28    73.009966    73.009967    36.425694          120   -3305.6313    167.43352   -59308.202    6.1215191    2461.2453   -2793.6898    73.009966    63.228486    36.425694   -20815.467   -309222.12 
     410    1240.9137    168060.33    72.996656    72.996656    36.419053          120    602.33872    3719.1408   -52557.051   -30.832218    916.34634   -1422.6582    72.996656    63.216959    36.419053   -16078.524   -309256.55 
     420    1235.0113    167970.48    72.983645    72.983646    36.412561          120    2447.9265    4003.7859   -46741.674    429.25632    647.97686   -2246.5043    72.983645    63.205691    36.412561   -13429.987   -309256.73 
     430    1242.4499    167882.84     72.97095     72.97095    36.406227          120    1205.1869    3029.3707   -47263.062    1623.2756   -542.63533   -2964.1525     72.97095    63.194697    36.406227   -14342.835   -309283.61 
     440    1234.6902    167797.14     72.95853    72.958531    36.400031          120    820.48112     1705.107   -48520.487   -634.86231    162.47377   -3550.0141     72.95853    63.183941    36.400031   -15331.633   -309280.26 
     450    1244.6484    167713.01    72.946335    72.946335    36.393947          120     -846.055    1233.9585   -53981.508   -848.13071   -407.32262   -3141.1034    72.946335     63.17338    36.393947   -17864.535    -309311.7 
     460    1229.2562    167629.98    72.934295    72.934296     36.38794          120   -2108.7732    1040.4808   -57957.208   -1344.8313     562.8761   -1958.8158    72.934295    63.162953     36.38794   -19675.167   -309294.36 
     470    1237.9435    167547.71    72.922362    72.922362    36.381986          120   -310.26887    3769.5231   -59390.588   -1225.7086    804.99265   -1684.6591    72.922362    63.152618    36.381986   -18643.778   -309322.98 
     480    1225.5242    167466.17    72.910531    72.910531    36.376084          120    2623.3516    4707.6829   -58799.208   -709.58971   -195.12718   -1932.2787    72.910531    63.142373    36.376084   -17156.058   -309310.79 
     490    1219.0536    167385.49    72.898819     72.89882    36.370241          120    5029.7178    7399.7743   -56901.561    108.54284    1063.8602   -2465.5796    72.898819     63.13223    36.370241   -14824.023   -309309.22 
     500    1228.0566    167305.84    72.887256    72.887256    36.364471          120    4720.5694    7586.0877   -52475.226    752.52565    1057.0933   -3458.3872    72.887256    63.122216    36.364471   -13389.523   -309336.61 
     510    1225.3991    167227.37    72.875858    72.875859    36.358785          120    6587.3583    7808.8165   -48731.528    763.88679    1047.2513   -3418.9469    72.875858    63.112345    36.358785   -11445.118   -309341.76 
     520    1220.5105     167150.2    72.864646    72.864647    36.353191          120    7331.5364    9361.6417   -47325.852    -916.4342    721.75667   -3075.9025    72.864646    63.102635    36.353191   -10210.891   -309343.33 
     530    1225.8771    167074.39    72.853628    72.853629    36.347694          120    7957.1665    8827.8926   -47146.763   -1307.8737    502.05076   -3665.5132    72.853628    63.093094    36.347694   -10120.568   -309363.75 
     540    1205.0788    166999.91    72.842801    72.842801    36.342292          120    8460.2089      9423.21   -47246.193   -423.05455    919.43143    -3540.804    72.842801    63.083717    36.342292   -9787.5912   -309333.41 
     550    1219.6119    166926.69    72.832154    72.832154     36.33698          120    8279.7643    10276.763   -49483.846   -1210.9668   -623.17061   -2324.3297    72.832154    63.074496     36.33698   -10309.106   -309371.06 
     560    1209.3777    166854.64    72.821673    72.821674    36.331752          120    9513.8999    12589.489   -48217.796   -1338.7734    408.87385   -842.11242    72.821673     63.06542    36.331752   -8704.8022   -309359.95 
     570    1211.4159    166783.86    72.811375    72.811376    36.326613          120    10074.622    14517.637   -47267.358   -734.42991   -549.76147   -1247.7964    72.811375    63.056501    36.326613   -7558.3662   -309373.19 
     580    1210.8931    166714.43    72.801271    72.801271    36.321572          120    11157.956    14592.927   -46198.461   -448.25021   -451.60943   -2934.8606    72.801271     63.04775    36.321572   -6815.8594   -309380.62 
     590    1228.8895    166646.42    72.791369     72.79137    36.316632          120    12974.769    14225.579    -43710.05   -758.15062    889.23878   -3256.9715    72.791369    63.039175    36.316632   -5503.2341   -309424.02 
     600    1213.6115    166579.93    72.781688    72.781688    36.311802          120    14789.142    15820.141   -41532.904     346.9795   -148.87551   -4355.8699    72.781688    63.030791    36.311802   -3641.2072   -309403.26 
     610    1212.9393    166515.12    72.772247    72.772248    36.307092          120    14762.021    16333.096   -40648.641    353.49342   -1479.9906    -3802.396    72.772247    63.022615    36.307092   -3184.5079    -309410.7 
     620    1204.0705    166452.02    72.763055    72.763055    36.302506          120    16371.687    16780.658   -37893.481    186.31947   -985.18983   -1996.9279    72.763055    63.014654    36.302506   -1580.3788   -309401.86 
     630    1207.5931    166390.71    72.754119     72.75412    36.298048          120    16107.097    15964.142   -39665.373    605.96683    687.70297   -2078.2108    72.754119    63.006916    36.298048    -2531.378   -309416.23 
     640    1206.8033    166331.03    72.745419     72.74542    36.293707          120    15926.833    17326.168   -40748.826    502.29951   -410.96244   -3310.5465    72.745419    62.999382    36.293707   -2498.6083   -309422.27 
     650     1215.995    166272.89    72.736942    72.736943    36.289478          120    15377.983    16285.769   -42170.812    103.58002    244.68398   -4273.8183    72.736942    62.992041    36.289478   -3502.3535   -309448.58 
     660     1202.058    166216.12    72.728664    72.728664    36.285348          120    14895.768    13315.356   -41361.054    263.20269   -588.41309   -4101.2773    72.728664    62.984871    36.285348   -4383.3098   -309428.96 
     670    1204.2389    166160.57    72.720561    72.720562    36.281305          120    15905.845    15868.948   -41586.107   -75.002362   -597.17485   -2977.2835    72.720561    62.977854    36.281305    -3270.438   -309440.17 
     680    1223.0667    166106.35     72.71265     72.71265    36.277358          120    16338.622    19805.042   -38430.941    696.17374   -1104.6383   -1622.0137     72.71265    62.971002    36.277358   -762.42543   -309482.81 
     690     1193.459     166053.7    72.704966    72.704967    36.273525          120    17120.245    20832.274   -37374.466    1593.4492   -279.36977   -2987.9823    72.704966    62.964348    36.273525     192.6842   -309433.06 
     700     1200.764    166002.69    72.697521    72.697522     36.26981          120    17724.464    19502.498   -35096.618    1544.6976   -212.52331   -2922.2483    72.697521    62.957901     36.26981     710.1148   -309454.67 
     710    1203.6597    165953.37     72.69032    72.690321    36.266218          120    19436.655    20909.182   -35729.169    1422.3373   -272.48053   -3483.5999     72.69032    62.951665    36.266218    1538.8892   -309466.28 
     720    1188.6462    165905.74    72.683365    72.683366    36.262748          120    18586.744    20589.451    -37151.53    1039.7107   -290.97714   -3778.1236    72.683365    62.945641    36.262748    674.88849   -309443.56 
     730    1206.2765    165859.66    72.676636    72.676637     36.25939          120    17466.835    20583.193   -34089.775   -27.548693   -1281.7988    -2334.859    72.676636    62.939814     36.25939    1320.0844   -309482.73 
     740    1202.8995    165815.15    72.670135    72.670135    36.256147          120    18438.051    21454.122   -34239.668   -808.29519   -999.71245   -2997.3731    72.670135    62.934183    36.256147    1884.1684   -309481.87 
     750    1198.4877    165772.23    72.663864    72.663865    36.253018          120    19672.824    21619.845   -35651.425    32.156081   -1743.7568    -4496.239    72.663864    62.928753    36.253018    1880.4147   -309479.46 
     760    1193.6257    165730.85    72.657817    72.657818    36.250001          120    20638.041    21845.195   -36358.857    637.16442   -2159.2638    -2097.781    72.657817    62.923516    36.250001    2041.4596   -309474.96 
     770    1201.6737    165690.98    72.651991    72.651991    36.247094          120    20565.903    21975.238    -33865.68    -844.9605    -1241.784   -663.50122    72.651991     62.91847    36.247094    2891.8206   -309495.33 
     780    1191.6833    165652.68    72.646392    72.646393    36.244301          120    23251.687    22044.527   -33443.916   -176.10494    551.83411   -1300.9492    72.646392    62.913622    36.244301    3950.7662    -309480.8 
     790    1192.8421    165616.03    72.641034    72.641035    36.241628          120    24097.647    23229.907   -31417.848   -957.86112   -117.79681   -2351.4117    72.641034    62.908981    36.241628    5303.2353    -309487.2 
     800    1199.3133    165581.13    72.635931    72.635932    36.239082          120    24901.384     24537.02   -32888.594   -1140.6428   -1202.1103   -3574.8229    72.635931    62.904562    36.239082    5516.6032    -309503.8 
     810    1201.2603    165547.96    72.631081    72.631082    36.236662          120     23351.94    24654.034    -33271.24   -1164.1798   -648.44892    -5219.679    72.631081    62.900362    36.236662    4911.5782   -309511.57 
     820    1199.7942    165516.41    72.626467    72.626467     36.23436          120    22788.526     24592.21   -31526.249   -472.13113   -1091.7557   -3868.3323    72.626467    62.896366     36.23436    5284.8289   -309512.13 
     830    1200.1783    165486.47    72.622088    72.622088    36.232175          120    23824.138    27456.744   -31541.505   -27.803259   -228.23873   -3683.9845    72.622088    62.892573    36.232175    6579.7924   -309516.95 
     840    1201.5576    165458.23    72.617955    72.617956    36.230114          120    23620.256    26814.455   -32623.456    883.84503    -2323.989   -4206.2676    72.617955    62.888995    36.230114    5937.0846   -309523.77 
     850    1193.4347    165431.58    72.614056    72.614057    36.228168          120     22774.46    25799.036   -33465.613    1673.0101   -2866.5416   -3844.5601    72.614056    62.885618    36.228168    5035.9611   -309511.56 
     860    1177.5823    165406.34    72.610363    72.610364    36.226326          120      22539.9    25253.045   -33944.354     1605.346   -2352.6423   -3446.3886    72.610363     62.88242    36.226326    4616.1969   -309484.56 
     870    1196.1108    165382.42    72.606863    72.606863    36.224579          120    23142.819    25958.843   -31217.438    732.08622   -1845.7497   -2881.9706    72.606863    62.879388    36.224579    5961.4082   -309523.56 
     880    1192.8668    165359.93    72.603571    72.603572    36.222937          120    24282.789    26615.627   -30469.878    51.827767   0.32326081   -1694.7087    72.603571    62.876538    36.222937    6809.5128   -309520.09 
     890    1185.3863    165338.95    72.600501    72.600502    36.221406          120    23295.334     27109.28   -30783.901   -487.48296    1085.7213      668.362    72.600501    62.873879    36.221406    6540.2379   -309507.92 
     900    1188.9854    165319.38    72.597636    72.597637    36.219976          120    21732.284    25843.975   -34626.931   -31.088558    1219.6607    722.72447    72.597636    62.871398    36.219976    4316.4425   -309516.27 
     910    1198.1555    165300.92    72.594935    72.594936    36.218628          120    21009.071    25782.762   -34265.659    -196.9043    1122.2974   -780.65898    72.594935    62.869058    36.218628    4175.3913   -309535.22 
     920    1190.9411    165283.53    72.592389     72.59239    36.217358          120    22123.212    26991.276   -32445.642    679.65603    1768.8794   -309.49573    72.592389    62.866854    36.217358    5556.2818   -309521.87 
     930    1191.2296    165267.33    72.590016    72.590017    36.216175          120    22631.428     27933.14   -31845.212    1389.9121    494.54589   -625.00031    72.590016    62.864799    36.216175    6239.7854   -309522.88 
     940    1200.3341    165252.35    72.587824    72.587824    36.215081          120    23626.347    25901.247   -31994.722   -6.1993696    629.66431   -396.17011    72.587824      62.8629    36.215081    5844.2904    -309540.8 
     950    1193.9602    165238.53    72.585801    72.585801    36.214071          120     23010.48    25823.508   -31721.258    -1247.161    496.97378   -1154.6578    72.585801    62.861148    36.214071    5704.2431   -309529.33 
     960    1192.4015    165225.82    72.583939     72.58394    36.213143          120    21899.346    26319.223   -31788.103   -2126.7906   -104.70711   -1927.1591    72.583939    62.859536    36.213143    5476.8223   -309526.13 
     970    1187.6467    165214.16    72.582232    72.582233    36.212291          120    21982.169    25582.025   -31559.566   -2452.0558    546.67054   -2077.6565    72.582232    62.858058    36.212291    5334.8758   -309516.94 
     980    1196.8464    165203.51    72.580672    72.580672    36.211512          120     23091.06    25295.976   -30272.076   -1049.3779    1639.7324   -2677.5527    72.580672    62.856706    36.211512    6038.3198    -309533.4 
     990    1201.6474    165193.93    72.579269     72.57927    36.210813          120    24240.209    28632.251   -29330.232    410.59496    2320.7648   -2522.7298    72.579269    62.855491    36.210813    7847.4094   -309542.06 
    1000    1185.0878    165185.58    72.578046    72.578047    36.210203          120    24199.381    27065.044   -30883.255   -358.80835    1079.9792    12.327279    72.578046    62.854433    36.210203    6793.7235   -309509.33 
Loop time of 394.567 on 1 procs for 1000 steps with 14848 atoms

Performance: 0.219 ns/day, 109.602 hours/ns, 2.534 timesteps/s
100.0% CPU use with 1 MPI tasks x no OpenMP threads

MPI task timing breakdown:
Section |  min time  |  avg time  |  max time  |%varavg| %total
---------------------------------------------------------------
Pair    | 290.96     | 290.96     | 290.96     |   0.0 | 73.74
Bond    | 0.00064445 | 0.00064445 | 0.00064445 |   0.0 |  0.00
Kspace  | 13.787     | 13.787     | 13.787     |   0.0 |  3.49
Neigh   | 81.215     | 81.215     | 81.215     |   0.0 | 20.58
Comm    | 0.58359    | 0.58359    | 0.58359    |   0.0 |  0.15
Output  | 0.012799   | 0.012799   | 0.012799   |   0.0 |  0.00
Modify  | 7.8606     | 7.8606     | 7.8606     |   0.0 |  1.99
Other   |            | 0.1498     |            |       |  0.04

Nlocal:    14848 ave 14848 max 14848 min
Histogram: 1 0 0 0 0 0 0 0 0 0
Nghost:    46644 ave 46644 max 46644 min
Histogram: 1 0 0 0 0 0 0 0 0 0
Neighs:    9.96156e+06 ave 9.96156e+06 max 9.96156e+06 min
Histogram: 1 0 0 0 0 0 0 0 0 0

Total # of neighbors = 9961555
Ave neighs/atom = 670.902
Ave special neighs/atom = 0
Neighbor list builds = 257
Dangerous builds = 0
PPPM initialization ...
  using 12-bit tables for long-range coulomb (../kspace.cpp:321)
  G vector (1/distance) = 0.202411
  grid = 36 50 24
  stencil order = 5
  estimated absolute RMS force accuracy = 0.00100978
  estimated relative force accuracy = 7.01254e-05
  using double precision FFTs
  3d grid and FFT values/proc = 65395 43200
Setting up Verlet run ...
  Unit style    : metal
  Current step  : 0
  Time step     : 0.001
Per MPI rank memory allocation (min/avg/max) = 150.3 | 150.3 | 150.3 Mbytes
Step Temp Volume Cella Cellb Cellc CellGamma Pxx Pyy Pzz Pxy Pxz Pyz Lx Ly Lz Press PotEng 
       0    1185.0878    165185.58    72.578046    72.578047    36.210203          120    24207.854    27073.748   -30880.548   -358.63981    1079.9021    12.417158    72.578046    62.854433    36.210203    6800.3513   -309509.22 
  100000    1210.7266    167813.95    72.960967    72.960968    36.401247          120    18024.334    17376.019    -38518.28   -3186.9329    -363.3602    1686.2405    72.960967    63.186052    36.401247   -1039.3092    -309704.3 
Loop time of 38745.2 on 1 procs for 100000 steps with 14848 atoms

Performance: 0.223 ns/day, 107.626 hours/ns, 2.581 timesteps/s
100.0% CPU use with 1 MPI tasks x no OpenMP threads

MPI task timing breakdown:
Section |  min time  |  avg time  |  max time  |%varavg| %total
---------------------------------------------------------------
Pair    | 28342      | 28342      | 28342      |   0.0 | 73.15
Bond    | 0.056103   | 0.056103   | 0.056103   |   0.0 |  0.00
Kspace  | 1392.1     | 1392.1     | 1392.1     |   0.0 |  3.59
Neigh   | 8142       | 8142       | 8142       |   0.0 | 21.01
Comm    | 61.069     | 61.069     | 61.069     |   0.0 |  0.16
Output  | 0.00012112 | 0.00012112 | 0.00012112 |   0.0 |  0.00
Modify  | 790.95     | 790.95     | 790.95     |   0.0 |  2.04
Other   |            | 16.8       |            |       |  0.04

Nlocal:    14848 ave 14848 max 14848 min
Histogram: 1 0 0 0 0 0 0 0 0 0
Nghost:    46237 ave 46237 max 46237 min
Histogram: 1 0 0 0 0 0 0 0 0 0
Neighs:    9.80375e+06 ave 9.80375e+06 max 9.80375e+06 min
Histogram: 1 0 0 0 0 0 0 0 0 0

Total # of neighbors = 9803751
Ave neighs/atom = 660.274
Ave special neighs/atom = 0
Neighbor list builds = 25456
Dangerous builds = 0
 
All done!
Total wall time: 10:52:21
