LAMMPS (16 Mar 2018)
Reading data file ...
  triclinic box = (0 0 0) to (9.208 7.97436 18.376) with tilt (-4.604 0 0)
  1 by 1 by 1 MPI processor grid
  reading atoms ...
  116 atoms
Finding 1-2 1-3 1-4 neighbors ...
  special bond factors lj:   0          0          0         
  special bond factors coul: 0          0          0         
  0 = max # of 1-2 neighbors
  0 = max # of 1-3 neighbors
  0 = max # of 1-4 neighbors
  1 = max # of special neighbors
Replicating atoms ...
  triclinic box = (0 0 0) to (73.664 63.7949 36.752) with tilt (-36.832 0 0)
  1 by 1 by 1 MPI processor grid
  14848 atoms
Finding 1-2 1-3 1-4 neighbors ...
  special bond factors lj:   0          0          0         
  special bond factors coul: 0          0          0         
  0 = max # of 1-2 neighbors
  0 = max # of 1-3 neighbors
  0 = max # of 1-4 neighbors
  1 = max # of special neighbors
  Time spent = 0.0049789 secs
PPPM initialization ...
WARNING: System is not charge neutral, net charge = -0.2048 (../kspace.cpp:302)
  using 12-bit tables for long-range coulomb (../kspace.cpp:321)
  G vector (1/distance) = 0.201681
  grid = 36 50 24
  stencil order = 5
  estimated absolute RMS force accuracy = 0.00105653
  estimated relative force accuracy = 7.33721e-05
  using double precision FFTs
  3d grid and FFT values/proc = 65395 43200
Neighbor list info ...
  update every 1 steps, delay 0 steps, check yes
  max neighbors/atom: 2000, page size: 100000
  master list distance cutoff = 15.3
  ghost atom cutoff = 15.3
  binsize = 7.65, bins = 15 9 5
  3 neighbor lists, perpetual/occasional/extra = 3 0 0
  (1) pair morse, perpetual
      attributes: half, newton on
      pair build: half/bin/newton/tri
      stencil: half/bin/3d/newton/tri
      bin: standard
  (2) pair buck, perpetual, copy from (1)
      attributes: half, newton on
      pair build: copy
      stencil: none
      bin: none
  (3) pair lj/cut/coul/long, perpetual, copy from (1)
      attributes: half, newton on
      pair build: copy
      stencil: none
      bin: none
Setting up Verlet run ...
  Unit style    : metal
  Current step  : 0
  Time step     : 0.001
Per MPI rank memory allocation (min/avg/max) = 145.7 | 145.7 | 145.7 Mbytes
Step Temp Volume Cella Cellb Cellc CellGamma Pxx Pyy Pzz Pxy Pxz Pyz Lx Ly Lz Press PotEng 
       0         1000    172711.88       73.664    73.664001       36.752          120   -192354.03   -192533.32    -264044.3    80.038595   -25.426023    34.011095       73.664    63.794896       36.752   -216310.55   -308813.26 
      10     687.9706    172693.29    73.661357    73.661357    36.750681          120   -184749.62   -184840.01   -230116.94    151.21788   -33.846677   -323.51182    73.661357    63.792607    36.750681   -199902.19   -308224.66 
      20    997.13298    172639.92    73.653768    73.653769    36.746895          120   -170270.87   -170550.12    -165864.2    143.13345   -146.96265   -655.55458    73.653768    63.786035    36.746895   -168895.06    -308823.7 
      30    1078.3773    172557.54    73.642051    73.642051    36.741049          120   -126117.37   -126389.73   -86358.038    -164.8252   -839.39865   -594.74701    73.642051    63.775888    36.741049   -112955.04   -308980.27 
      40    855.20157    172455.76    73.627569     73.62757    36.733824          120   -78860.933   -79699.925   -11715.655    -1491.529   -1031.2613   -496.76949    73.627569    63.763346    36.733824   -56758.837   -308542.81 
      50    981.49409    172343.96    73.611656    73.611656    36.725885          120   -56057.619   -57237.692   -3517.2261   -348.63102   -450.82546   -703.60798    73.611656    63.749565    36.725885   -38937.512   -308773.14 
      60    1197.3201    172225.62    73.594803    73.594804    36.717477          120   -51524.434    -50934.35   -52797.108   -1404.7276   -1585.9549    -825.9766    73.594803     63.73497    36.717477   -51751.964   -309178.28 
      70    1307.6094    172099.27    73.576802    73.576802    36.708496          120   -48142.597   -49406.359   -115174.22   -1981.9022   -2222.4491   -760.22975    73.576802     63.71938    36.708496   -70907.726   -309396.14 
      80    1185.7218     171962.2    73.557263    73.557263    36.698747          120   -48643.945   -51069.885   -156223.28   -2040.5733   -1985.5214   -367.14465    73.557263    63.702459    36.698747   -85312.372    -309180.6 
      90    979.46749    171812.62    73.535929    73.535929    36.688103          120   -47557.023   -47348.203    -164907.9    -1568.378   -2641.6602   -2028.6293    73.535929    63.683983    36.688103   -86604.376   -308800.99 
     100    1021.3475    171651.23    73.512896    73.512897    36.676612          120   -31951.579   -30876.711   -144217.13   -1419.8217   -2265.4633   -1819.0018    73.512896    63.664036    36.676612   -69015.141   -308895.36 
     110    1159.5835    171481.78    73.488699    73.488699     36.66454          120   -14033.214   -13626.303   -108053.87   -1854.9827   -573.48263   -2045.6096    73.488699    63.643081     36.66454   -45237.796   -309174.52 
     120    1180.6845    171309.21    73.464039     73.46404    36.652237          120   -4131.0863    -3854.552   -65566.933   -1604.5927    95.959288   -1627.9914    73.464039    63.621725    36.652237   -24517.524   -309231.61 
     130    1112.3145    171137.91    73.439543    73.439544    36.640015          120   -3630.7104   -2079.7152    -31786.98   -1084.5892   -762.33119   -1653.9468    73.439543    63.600511    36.640015   -12499.135   -309118.56 
     140    1076.0335    170970.65    73.415611    73.415611    36.628075          120   -7051.4838   -6445.6929   -19192.137   -814.53238    -552.1025   -2882.5775    73.415611    63.579785    36.628075   -10896.438   -309063.93 
     150    1102.6149    170808.26    73.392359     73.39236    36.616475          120   -14296.601   -12953.949   -35479.189   -1717.3949   -740.31903   -1997.6139    73.392359    63.559648    36.616475   -20909.913   -309130.27 
     160    1157.8182    170649.62    73.369631    73.369631    36.605135          120   -21438.165   -19349.124   -64822.617   -2008.3967   -1249.6462   -3114.9997    73.369631    63.539965    36.605135   -35203.302   -309254.47 
     170    1172.1246    170492.86    73.347159    73.347159    36.593923          120   -24432.013   -23674.885   -92668.598   -1603.9305   -2125.2466   -3167.2157    73.347159    63.520503    36.593923   -46925.165   -309304.39 
     180     1109.129    170336.61    73.324745    73.324746    36.582741          120   -22062.726   -21005.153   -110265.84   -631.59693   -1904.8727   -2838.4013    73.324745    63.501093    36.582741    -51111.24   -309206.83 
     190    1089.9555    170180.65    73.302359     73.30236    36.571572          120   -20167.127   -16772.977   -111952.15   -887.60504   -3406.5853   -2368.8919    73.302359    63.481706    36.571572   -49630.752   -309192.05 
     200    1101.1857    170025.75    73.280113    73.280113    36.560473          120    -15228.11   -14350.397   -96487.177   -1567.6424   -2352.8358    -1856.185    73.280113     63.46244    36.560473   -42021.895   -309232.74 
     210    1136.0661    169873.44    73.258224    73.258225    36.549553          120   -11791.187   -11857.827   -78215.932   -1200.8798   -2260.1456   -2098.6757    73.258224    63.443484    36.549553   -33954.982   -309320.01 
     220    1127.5474    169725.26    73.236917    73.236918    36.538923          120   -9123.1658   -7059.9814    -62052.98   -1732.6945   -1788.9934    -3167.681    73.236917    63.425032    36.538923   -26078.709   -309324.16 
     230    1112.3661    169582.42    73.216367    73.216367     36.52867          120   -9896.6314   -7081.9763   -53865.791   -1655.6054   -1127.4503   -5338.7199    73.216367    63.407234     36.52867     -23614.8   -309313.95 
     240    1104.8992    169445.22    73.196616    73.196616    36.518815          120   -10906.805   -9049.3387   -52065.267   -1054.8379   -1271.2959   -6121.7311    73.196616    63.390129    36.518815   -24007.137   -309319.45 
     250    1116.2699    169313.26     73.17761     73.17761    36.509333          120   -13215.644    -12019.88   -59891.126    140.38865   -591.42681   -5638.2173     73.17761    63.373669    36.509333    -28375.55   -309360.91 
     260     1128.777    169185.53    73.159203    73.159204     36.50015          120   -17008.074   -13987.896   -71965.603   -188.06355    -1393.656    -5829.023    73.159203    63.357729     36.50015   -34320.525   -309406.27 
     270    1126.3789    169060.83    73.141225    73.141225     36.49118          120    -17289.78   -14681.797   -80284.639    437.87117   -1647.5552   -3737.5211    73.141225    63.342159     36.49118   -37418.739   -309423.28 
     280    1107.8643    168938.35    73.123558    73.123558    36.482366          120   -17113.056    -14904.69   -85728.977     1106.303   -486.10974   -2174.4393    73.123558    63.326859    36.482366   -39248.908   -309409.65 
     290    1100.4867    168817.61    73.106133    73.106134    36.473672          120   -14307.794   -12645.011    -83111.91    976.83696   -1585.3629   -2886.6489    73.106133    63.311769    36.473672   -36688.239   -309416.93 
     300    1100.1996    168698.72    73.088967    73.088968    36.465108          120   -10115.756   -10252.541   -75437.482    98.101386   -1028.9836   -3460.7566    73.088967    63.296903    36.465108    -31935.26   -309436.25 
     310    1105.1024    168582.13    73.072126    73.072127    36.456706          120   -8568.4254   -7750.0749   -65769.435   -208.75164   -2144.2688   -3350.1452    73.072126    63.282318    36.456706   -27362.645      -309465 
     320    1095.8367    168468.26    73.055669     73.05567    36.448495          120   -8123.9787   -6046.4107   -55997.575   -197.66712   -1503.1019   -3695.4189    73.055669    63.268066    36.448495   -23389.321   -309466.43 
     330    1097.4526    168357.37    73.039637    73.039638    36.440497          120     -6419.43   -4611.0062   -50270.092     554.0666   -2098.9175   -4939.9881    73.039637    63.254182    36.440497   -20433.509   -309488.36 
     340    1097.7494    168249.51    73.024036    73.024036    36.432713          120   -7210.6221    -5399.409   -52771.412    704.00341   -1402.0813   -3905.7502    73.024036    63.240671    36.432713   -21793.814   -309507.28 
     350    1103.1731    168144.15     73.00879     73.00879    36.425106          120   -7569.2914   -5081.9662   -59149.258    1547.7206   -164.91795   -2393.4393     73.00879    63.227467    36.425106   -23933.505   -309537.05 
     360    1099.2914    168040.62    72.993802    72.993802    36.417629          120   -7889.1127    -5092.494   -67549.544    1443.3851    -406.9496   -2712.4828    72.993802    63.214487    36.417629   -26843.717    -309549.2 
     370    1083.0775    167938.22    72.978973    72.978973     36.41023          120   -5522.0002   -4341.1196   -71287.458    1412.8849   -1540.2518   -2008.1438    72.978973    63.201645     36.41023   -27050.193   -309537.28 
     380     1078.422    167836.67     72.96426     72.96426     36.40289          120   -3501.5951   -1771.1211   -70802.963    851.46084   -2228.1279   -1972.4408     72.96426    63.188903     36.40289    -25358.56   -309546.89 
     390    1075.5598    167736.01     72.94967    72.949671    36.395611          120   -1889.5885      -1038.7   -67048.533   -745.51503   -855.24058   -2758.3593     72.94967    63.176268    36.395611   -23325.607   -309559.47 
     400    1074.1084    167636.42    72.935229     72.93523    36.388406          120   -304.48434    941.06947   -60312.978   -831.10216   -491.07354   -3496.9286    72.935229    63.163762    36.388406   -19892.131   -309574.14 
     410    1076.3105    167538.26    72.920991    72.920991    36.381302          120     1243.235    3744.1107   -51396.307    469.66545   -850.86646   -3518.3523    72.920991    63.151431    36.381302   -15469.654   -309595.11 
     420    1073.0042    167442.01    72.907024    72.907025    36.374334          120    3739.7951    4742.7975   -47840.196    42.002042   -1075.4685   -3071.5186    72.907024    63.139336    36.374334   -13119.201   -309606.57 
     430    1072.2316    167347.85    72.893355    72.893356    36.367515          120    2912.7719    2207.4485   -47150.562   -279.47626   -1202.6291   -2347.4653    72.893355    63.127498    36.367515   -14010.114   -309622.79 
     440    1073.7782    167255.49    72.879942    72.879943    36.360823          120    1039.0057     992.5571   -50772.981   -288.01356   -1285.1648   -1664.1891    72.879942    63.115882    36.360823   -16247.139   -309642.52 
     450    1062.6784    167164.42    72.866713    72.866714    36.354222          120   -139.67995    193.02871   -55343.276      -537.41   -2341.2995   -1054.9133    72.866713    63.104425    36.354222   -18429.976   -309638.49 
     460      1063.58    167074.22    72.853604    72.853604    36.347682          120    941.13772    1558.2338   -58826.466   -482.70817   -1113.2025    -1001.303    72.853604    63.093072    36.347682   -18775.698   -309656.99 
     470    1068.1458    166984.72    72.840593    72.840594    36.341191          120     2689.606    3644.9521   -58190.561   -408.11769   -1204.6277   -443.77653    72.840593    63.081805    36.341191   -17285.334   -309682.03 
     480    1057.5254    166896.08    72.827702    72.827702    36.334759          120    5254.1057    5137.7681   -56737.653   -117.77649   -1660.4669   -2310.6768    72.827702     63.07064    36.334759   -15448.593   -309677.93 
     490    1045.4903    166808.52    72.814964    72.814964    36.328404          120    8341.2591    7844.0427   -53043.642    481.29294   -1527.7101   -3023.4589    72.814964    63.059609    36.328404   -12286.113   -309670.39 
     500    1047.6747    166722.45    72.802438    72.802438    36.322155          120     8543.798    8943.0777   -47048.954    1054.3152   -762.26737   -2621.7154    72.802438    63.048761    36.322155   -9854.0261   -309689.49 
     510    1046.7838    166638.17    72.790168    72.790168    36.316033          120    8980.4308    9414.3744   -44801.238   -185.88367   -761.30064   -1844.4622    72.790168    63.038135    36.316033   -8802.1441   -309702.08 
     520    1046.2491    166555.73    72.778163    72.778164    36.310044          120    7700.8448    8620.9263   -45514.222    357.99442   -395.85693   -2530.1709    72.778163    63.027739    36.310044   -9730.8171   -309715.61 
     530    1044.2099    166474.95    72.766396    72.766396    36.304173          120    7818.2592    8594.2998   -47500.317   -407.07633   -291.94419   -3397.9844    72.766396    63.017548    36.304173   -10362.586   -309726.39 
     540    1043.6047    166395.67    72.754842    72.754843    36.298408          120    9214.2396    9835.4494   -47486.824   -620.54164   -820.81822   -2152.5892    72.754842    63.007542    36.298408   -9479.0451   -309739.85 
     550    1038.0139    166317.93    72.743509     72.74351    36.292754          120    10927.282    11216.663    -46424.72    349.92206   -2293.6808    -1690.502    72.743509    62.997728    36.292754   -8093.5919   -309743.05 
     560     1045.355    166241.84    72.732415    72.732416    36.287219          120    11708.242    11908.369   -46720.119    709.82727    -3210.899   -1605.2765    72.732415     62.98812    36.287219   -7701.1695   -309771.27 
     570    1026.4248    166167.45    72.721564    72.721565    36.281806          120    12944.001    12037.992   -47251.156   -461.75298   -3066.0577   -2103.8815    72.721564    62.978723    36.281806   -7423.0546   -309747.96 
     580    1034.1598     166094.7    72.710949     72.71095     36.27651          120    12663.981     11962.93   -47033.069   -252.23981   -3398.3104   -2287.6986    72.710949     62.96953     36.27651   -7468.7197    -309776.4 
     590    1028.2056    166023.55    72.700567    72.700567     36.27133          120    12880.808     13845.38   -43305.865    578.71526   -2769.7039   -2435.7187    72.700567    62.960538     36.27133   -5526.5591   -309777.99 
     600    1021.6532     165954.2    72.690442    72.690443    36.266278          120    13104.823    12474.533    -42322.13   -279.94563   -1228.5062   -2196.3046    72.690442     62.95177    36.266278   -5580.9245   -309777.67 
     610    1021.1134     165886.6     72.68057    72.680571    36.261353          120    14697.015    12334.348   -42321.107    22.481522   -751.23694   -1899.3653     72.68057    62.943221    36.261353   -5096.5814   -309789.22 
     620    1024.6906    165820.71    72.670947    72.670948    36.256552          120    14320.344     11538.48   -41027.867    688.06728   -1097.7982   -2332.8785    72.670947    62.934887    36.256552   -5056.3478   -309807.97 
     630    1028.7311    165756.53     72.66157    72.661571    36.251874          120    14131.743    13315.583   -40655.636    273.95913   -592.79538   -3606.8656     72.66157    62.926767    36.251874   -4402.7701   -309826.99 
     640    1019.7902    165694.04    72.652438    72.652438    36.247317          120    13529.677    13990.966   -42599.926     392.2229   -1546.7425   -4081.8712    72.652438    62.918857    36.247317   -5026.4275   -309821.09 
     650    1014.5338    165633.09    72.643529    72.643529    36.242873          120    14694.962    14213.318    -43969.07    -225.4294   -1470.1085   -3662.2061    72.643529    62.911142    36.242873   -5020.2632   -309822.72 
     660     1019.707    165573.65    72.634837    72.634837    36.238536          120    15766.659    15008.122   -43232.697    160.63661   -932.26714   -2855.3395    72.634837    62.903615    36.238536   -4152.6386   -309843.67 
     670     1008.352    165515.78    72.626374    72.626375    36.234314          120    16223.899    17214.179   -38927.043    574.99863   -1252.2991   -2345.5628    72.626374    62.896286    36.234314   -1829.6554   -309832.65 
     680    1016.5916    165459.75    72.618178    72.618179    36.230225          120    17723.627     17236.62   -37373.523    1889.3833   -1447.3804   -3437.3776    72.618178    62.889188    36.230225   -804.42522   -309858.87 
     690    1016.0565    165405.66    72.610264    72.610264    36.226276          120    17298.457    17843.545   -36054.308    1543.4598   -2460.1597   -2553.1396    72.610264    62.882333    36.226276   -304.10214   -309867.24 
     700    1018.6655     165353.5     72.60263    72.602631    36.222468          120    17117.445    17170.202   -35921.481    370.74635   -3212.0995   -3403.8855     72.60263    62.875723    36.222468    -544.6115   -309881.84 
     710    1004.5802    165303.16    72.595263    72.595264    36.218792          120    15905.522    17540.729   -37298.404   -425.73856   -3164.7892   -2512.4165    72.595263    62.869343    36.218792   -1284.0509   -309864.02 
     720    1002.6761     165254.5    72.588138    72.588139    36.215238          120    17142.872    18548.647   -36969.301    362.22866   -1931.9247   -2446.2389    72.588138    62.863173    36.215238   -425.92744   -309869.49 
     730    1001.9341    165207.53     72.58126    72.581261    36.211806          120    18528.173    20438.301   -36373.581    1152.1849   -1325.8654   -2954.5856     72.58126    62.857216    36.211806    864.29735   -309877.05 
     740    1000.4745    165162.35    72.574643    72.574644    36.208505          120    18360.331    21515.636   -37516.325    1230.1133   -1383.2863   -3427.8339    72.574643    62.851486    36.208505    786.54739   -309882.11 
     750    998.16896    165118.93    72.568283    72.568283    36.205331          120    19970.753    21211.165   -36871.289    1578.0953   -2073.9272   -2831.1998    72.568283    62.845977    36.205331    1436.8764   -309886.41 
     760    1001.0419    165077.27     72.56218    72.562181    36.202287          120    19889.508    20529.101   -34471.847    1593.9428   -2097.7737   -2826.1244     72.56218    62.840692    36.202287    1982.2539   -309899.44 
     770    1000.3834    165037.44    72.556344    72.556344    36.199375          120    21856.078    21356.283   -33186.113    1149.5902   -2319.5044   -3168.1369    72.556344    62.835637    36.199375    3342.0826   -309904.14 
     780    996.36547    164999.52    72.550785    72.550786    36.196602          120     22176.18    21493.336   -33366.257    597.56781   -3115.9735   -2301.8946    72.550785    62.830824    36.196602    3434.4194   -309903.57 
     790    994.19711    164963.45    72.545499    72.545499    36.193964          120    21212.809    21810.098   -32319.449      1503.58   -3646.9241   -1774.9674    72.545499    62.826245    36.193964    3567.8195   -309905.51 
     800     988.8495    164929.23    72.540482    72.540483    36.191461          120    23185.821    24017.582   -30151.243    2275.2165   -3805.1841   -3102.0979    72.540482    62.821901    36.191461    5684.0535   -309901.14 
     810    992.19346    164897.04    72.535763    72.535763    36.189107          120    24506.517    24747.983   -29864.839    2782.5308   -5218.3166   -3605.4509    72.535763    62.817814    36.189107    6463.2204   -309913.12 
     820     993.0179    164866.94    72.531349    72.531349    36.186904          120    24737.486    25189.385   -30064.322    1303.1602   -4687.6912   -3461.0664    72.531349    62.813991    36.186904    6620.8499   -309920.21 
     830    996.16506    164838.89    72.527235    72.527235    36.184852          120    23802.656    25724.485   -30553.391    171.87671   -3396.2088   -3861.6809    72.527235    62.810428    36.184852    6324.5832   -309930.99 
     840    994.48158    164812.76    72.523402    72.523403     36.18294          120    23819.578    25059.782   -32736.023    327.68911   -1382.6967   -3664.0092    72.523402    62.807109     36.18294    5381.1123   -309932.52 
     850    997.86773    164788.34    72.519821    72.519822    36.181153          120    23518.462    23739.815   -32641.562    1126.0924   -1845.3226   -3423.0131    72.519821    62.804008    36.181153    4872.2385   -309943.35 
     860    984.24478    164765.52    72.516473    72.516473    36.179483          120    23062.368    24855.734   -31534.742    1373.5125   -1603.9902   -3225.3841    72.516473    62.801108    36.179483      5461.12   -309920.85 
     870    987.51681     164744.3    72.513359     72.51336    36.177929          120    23336.888    26299.872   -30949.045    169.13328   -1195.0839   -2301.9982    72.513359    62.798412    36.177929    6229.2385   -309930.73 
     880    989.36847    164724.74    72.510489     72.51049    36.176497          120    25047.078    26124.568   -30392.029   -734.00973     -1116.41   -1389.7265    72.510489    62.795926    36.176497    6926.5391   -309937.27 
     890    986.73895    164706.84    72.507864    72.507864    36.175187          120    23650.373    24878.331   -30416.511   -73.870526     -1557.36   -961.62854    72.507864    62.793653    36.175187    6037.3977   -309934.49 
     900    987.35302    164690.49    72.505463    72.505464     36.17399          120    23684.377    25132.217   -31057.514    688.89939   -3321.4284   -2050.9144    72.505463    62.791574     36.17399    5919.6931   -309937.99 
     910      994.724    164675.56    72.503273    72.503274    36.172897          120    22802.342     25704.73   -31831.681     480.7778   -3801.5883   -1195.3843    72.503273    62.789677    36.172897    5558.4633   -309953.75 
     920    993.82265    164661.98     72.50128    72.501281    36.171903          120     24231.58    25164.203   -32145.685     609.5654   -3891.7376   -1283.4784     72.50128    62.787951    36.171903    5750.0329   -309952.46 
     930    991.90101    164649.72     72.49948    72.499481    36.171005          120    23541.388    24706.593    -31289.04    282.98975   -1426.3063   -3057.8932     72.49948    62.786392    36.171005    5652.9804   -309949.57 
     940    983.37181    164638.71    72.497864    72.497864    36.170198          120    23446.209    24874.023   -31911.946   -251.38482    569.65831    -3455.884    72.497864    62.784992    36.170198    5469.4287   -309934.28 
     950    987.36808     164628.9    72.496424    72.496424     36.16948          120    22903.667     26713.57   -29344.921    622.33034   -200.19823   -3974.0584    72.496424    62.783745     36.16948    6757.4387   -309942.63 
     960     982.4598     164620.4    72.495176    72.495177    36.168857          120    23691.538     26462.61   -30257.392   -689.79866    367.15246   -2265.6644    72.495176    62.782665    36.168857    6632.2516   -309932.19 
     970    989.36529    164613.19    72.494118    72.494118    36.168329          120    23259.725    24319.273   -29384.338    -958.1111   -490.16704   -1734.6002    72.494118    62.781748    36.168329    6064.8866   -309944.95 
     980    990.59516    164607.16    72.493233    72.493233    36.167888          120    22188.663    25421.572   -29360.307   -804.44874   -1035.6222   -1654.5029    72.493233    62.780982    36.167888    6083.3092   -309945.42 
     990    987.93034    164602.28    72.492516    72.492517     36.16753          120    24013.358     26620.82    -28874.48    159.24637   -2856.5938   -2008.7289    72.492516    62.780361     36.16753    7253.2325   -309938.83 
    1000    997.59681    164598.63    72.491981    72.491982    36.167264          120    24486.728    24982.967   -29495.705   -1466.9171   -3649.2012   -739.67708    72.491981    62.779898    36.167264    6657.9968   -309954.49 
Loop time of 411.269 on 1 procs for 1000 steps with 14848 atoms

Performance: 0.210 ns/day, 114.241 hours/ns, 2.431 timesteps/s
100.0% CPU use with 1 MPI tasks x no OpenMP threads

MPI task timing breakdown:
Section |  min time  |  avg time  |  max time  |%varavg| %total
---------------------------------------------------------------
Pair    | 305        | 305        | 305        |   0.0 | 74.16
Bond    | 0.00059676 | 0.00059676 | 0.00059676 |   0.0 |  0.00
Kspace  | 14.439     | 14.439     | 14.439     |   0.0 |  3.51
Neigh   | 82.752     | 82.752     | 82.752     |   0.0 | 20.12
Comm    | 0.59066    | 0.59066    | 0.59066    |   0.0 |  0.14
Output  | 0.013561   | 0.013561   | 0.013561   |   0.0 |  0.00
Modify  | 8.3168     | 8.3168     | 8.3168     |   0.0 |  2.02
Other   |            | 0.1539     |            |       |  0.04

Nlocal:    14848 ave 14848 max 14848 min
Histogram: 1 0 0 0 0 0 0 0 0 0
Nghost:    46655 ave 46655 max 46655 min
Histogram: 1 0 0 0 0 0 0 0 0 0
Neighs:    9.99753e+06 ave 9.99753e+06 max 9.99753e+06 min
Histogram: 1 0 0 0 0 0 0 0 0 0

Total # of neighbors = 9997529
Ave neighs/atom = 673.325
Ave special neighs/atom = 0
Neighbor list builds = 248
Dangerous builds = 0
PPPM initialization ...
  using 12-bit tables for long-range coulomb (../kspace.cpp:321)
  G vector (1/distance) = 0.202469
  grid = 36 50 24
  stencil order = 5
  estimated absolute RMS force accuracy = 0.00100614
  estimated relative force accuracy = 6.98728e-05
  using double precision FFTs
  3d grid and FFT values/proc = 65395 43200
Setting up Verlet run ...
  Unit style    : metal
  Current step  : 0
  Time step     : 0.001
Per MPI rank memory allocation (min/avg/max) = 150.3 | 150.3 | 150.3 Mbytes
Step Temp Volume Cella Cellb Cellc CellGamma Pxx Pyy Pzz Pxy Pxz Pyz Lx Ly Lz Press PotEng 
       0    997.59681    164598.63    72.491981    72.491982    36.167264          120    24495.828    24992.532   -29492.323   -1466.7111    -3649.301   -739.63696    72.491981    62.779898    36.167264    6665.3458   -309954.37 
  100000    1004.1297    167271.38    72.882251    72.882251    36.361974          120    16338.019    19310.661    -39617.43    1992.7554    -2519.304   -898.94929    72.882251    63.117881    36.361974   -1322.9168   -310105.08 
Loop time of 41201.5 on 1 procs for 100000 steps with 14848 atoms

Performance: 0.210 ns/day, 114.449 hours/ns, 2.427 timesteps/s
99.3% CPU use with 1 MPI tasks x no OpenMP threads

MPI task timing breakdown:
Section |  min time  |  avg time  |  max time  |%varavg| %total
---------------------------------------------------------------
Pair    | 30244      | 30244      | 30244      |   0.0 | 73.41
Bond    | 0.057874   | 0.057874   | 0.057874   |   0.0 |  0.00
Kspace  | 1488.3     | 1488.3     | 1488.3     |   0.0 |  3.61
Neigh   | 8275       | 8275       | 8275       |   0.0 | 20.08
Comm    | 63.75      | 63.75      | 63.75      |   0.0 |  0.15
Output  | 0.00012803 | 0.00012803 | 0.00012803 |   0.0 |  0.00
Modify  | 1111.8     | 1111.8     | 1111.8     |   0.0 |  2.70
Other   |            | 18.26      |            |       |  0.04

Nlocal:    14848 ave 14848 max 14848 min
Histogram: 1 0 0 0 0 0 0 0 0 0
Nghost:    46299 ave 46299 max 46299 min
Histogram: 1 0 0 0 0 0 0 0 0 0
Neighs:    9.83543e+06 ave 9.83543e+06 max 9.83543e+06 min
Histogram: 1 0 0 0 0 0 0 0 0 0

Total # of neighbors = 9835432
Ave neighs/atom = 662.408
Ave special neighs/atom = 0
Neighbor list builds = 24264
Dangerous builds = 0
 
All done!
Total wall time: 11:33:34
