LAMMPS (16 Mar 2018)
Reading data file ...
  triclinic box = (0 0 0) to (9.208 7.97436 18.376) with tilt (-4.604 0 0)
  1 by 1 by 1 MPI processor grid
  reading atoms ...
  116 atoms
Finding 1-2 1-3 1-4 neighbors ...
  special bond factors lj:   0          0          0         
  special bond factors coul: 0          0          0         
  0 = max # of 1-2 neighbors
  0 = max # of 1-3 neighbors
  0 = max # of 1-4 neighbors
  1 = max # of special neighbors
Replicating atoms ...
  triclinic box = (0 0 0) to (73.664 63.7949 36.752) with tilt (-36.832 0 0)
  1 by 1 by 1 MPI processor grid
  14848 atoms
Finding 1-2 1-3 1-4 neighbors ...
  special bond factors lj:   0          0          0         
  special bond factors coul: 0          0          0         
  0 = max # of 1-2 neighbors
  0 = max # of 1-3 neighbors
  0 = max # of 1-4 neighbors
  1 = max # of special neighbors
  Time spent = 0.00419688 secs
PPPM initialization ...
WARNING: System is not charge neutral, net charge = -0.2048 (../kspace.cpp:302)
  using 12-bit tables for long-range coulomb (../kspace.cpp:321)
  G vector (1/distance) = 0.201681
  grid = 36 50 24
  stencil order = 5
  estimated absolute RMS force accuracy = 0.00105653
  estimated relative force accuracy = 7.33721e-05
  using double precision FFTs
  3d grid and FFT values/proc = 65395 43200
Neighbor list info ...
  update every 1 steps, delay 0 steps, check yes
  max neighbors/atom: 2000, page size: 100000
  master list distance cutoff = 15.3
  ghost atom cutoff = 15.3
  binsize = 7.65, bins = 15 9 5
  3 neighbor lists, perpetual/occasional/extra = 3 0 0
  (1) pair morse, perpetual
      attributes: half, newton on
      pair build: half/bin/newton/tri
      stencil: half/bin/3d/newton/tri
      bin: standard
  (2) pair buck, perpetual, copy from (1)
      attributes: half, newton on
      pair build: copy
      stencil: none
      bin: none
  (3) pair lj/cut/coul/long, perpetual, copy from (1)
      attributes: half, newton on
      pair build: copy
      stencil: none
      bin: none
Setting up Verlet run ...
  Unit style    : metal
  Current step  : 0
  Time step     : 0.001
Per MPI rank memory allocation (min/avg/max) = 145.7 | 145.7 | 145.7 Mbytes
Step Temp Volume Cella Cellb Cellc CellGamma Pxx Pyy Pzz Pxy Pxz Pyz Lx Ly Lz Press PotEng 
       0          600    172711.88       73.664    73.664001       36.752          120   -197146.94   -197251.43   -268775.62    48.543137   -15.257356    20.406001       73.664    63.794896       36.752      -221058   -308813.26 
      10     502.5082       172680    73.659467    73.659468    36.749739          120   -195261.79   -195365.05   -241257.94    143.20691   -28.619422   -242.12772    73.659467    63.790971    36.749739   -210628.26   -308645.06 
      20    791.99551    172587.19    73.646268    73.646269    36.743153          120   -187218.67   -187077.56   -178920.67    60.062991     -249.964    -532.3113    73.646268     63.77954    36.743153   -184405.63   -309216.99 
      30    841.35643    172441.73    73.625573    73.625574    36.732828          120   -150281.25   -150214.62   -99086.536   -163.45625   -839.80677   -538.70193    73.625573    63.761617    36.732828   -133194.14   -309334.83 
      40    616.28307    172258.99    73.599556    73.599557    36.719848          120   -101921.62   -102473.64   -20960.267   -1057.8661   -1136.0804   -522.24423    73.599556    63.739086    36.719848   -75118.509   -308917.17 
      50    724.23955    172056.07    73.570644    73.570644    36.705423          120    -70554.09   -71584.234   -1974.6895   -487.11092   -897.88701   -624.43939    73.570644    63.714047    36.705423   -48037.671   -309128.37 
      60    978.60272    171842.32    73.540165    73.540166    36.690217          120   -58712.363   -58302.858   -48569.094   -1065.6369    -1814.611   -614.84096    73.540165    63.687652    36.690217   -55194.772   -309625.73 
      70    1109.8666    171618.32    73.508197    73.508198    36.674268          120   -51497.211   -51970.768   -113106.56   -1923.2078   -2407.6621   -819.54298    73.508197    63.659967    36.674268   -72191.514   -309908.87 
      80     979.8384    171381.77     73.47441     73.47441    36.657411          120    -48519.25   -50499.675   -157263.03   -1938.9229   -2366.2725   -86.739721     73.47441    63.630706    36.657411   -85427.318   -309696.35 
      90    749.04286    171131.86    73.438678    73.438678    36.639584          120   -46052.865   -46404.591   -168541.42   -1884.8553   -2870.2262     -1281.14    73.438678    63.599761    36.639584   -86999.627   -309284.14 
     100    778.67066    170871.62    73.401434    73.401434    36.621002          120   -30389.538   -30227.057   -147267.22   -1732.9295   -2563.0276   -1517.5771    73.401434    63.567507    36.621002   -69294.604   -309368.33 
     110    935.69222    170609.11    73.363826    73.363826    36.602239          120   -11228.696    -11571.86   -107861.35   -1709.9436   -926.03316   -1883.2459    73.363826    63.534937    36.602239   -43553.969   -309701.35 
     120    953.48507    170354.06    73.327248    73.327249     36.58399          120   -559.17344   -731.89402   -61891.222   -1612.6468   -539.55724   -1550.2896    73.327248    63.503261     36.58399   -21060.763   -309770.19 
     130    863.05164     170114.2    73.292817    73.292818    36.566812          120   -400.40837    555.06925   -25280.693    -1309.557   -1034.2576    -1834.173    73.292817    63.473442    36.566812    -8375.344   -309628.02 
     140    821.10614    169893.35    73.261087    73.261087    36.550981          120   -4466.2932   -4532.5037   -11390.418   -733.95402   -868.26007   -1977.6642    73.261087    63.445963    36.550981   -6796.4048   -309572.72 
     150    859.23469    169691.21     73.23202    73.232021    36.536479          120   -11448.536   -10353.944   -30048.259   -1977.1553   -456.44303   -1519.7157     73.23202     63.42079    36.536479    -17283.58   -309672.97 
     160     918.6204    169503.85    73.205057    73.205058    36.523027          120   -19297.186   -18838.988   -62463.863    -1693.318   -1326.2362   -2269.2679    73.205057     63.39744    36.523027   -33533.346   -309820.01 
     170    918.95428    169325.88    73.179428    73.179428     36.51024          120   -23732.444   -22849.223   -91210.453   -1309.9307    -1964.192   -2191.2973    73.179428    63.375244     36.51024   -45930.707   -309857.73 
     180     847.5179    169153.07    73.154524    73.154525    36.497815          120   -21476.004   -20342.597   -109474.13   -1272.2718   -2365.5365   -2237.0558    73.154524    63.353677    36.497815    -50430.91   -309756.55 
     190    820.41328    168983.39    73.130055    73.130056    36.485607          120   -17777.399   -16318.877   -110691.06   -706.56275   -2690.1498    -2043.126    73.130055    63.332486    36.485607   -48262.447   -309737.64 
     200    850.64811    168816.71    73.106002    73.106003    36.473607          120   -13299.294   -13643.038   -94540.383   -1454.2151    -2023.055   -1802.8267    73.106002    63.311656    36.473607   -40494.238   -309828.01 
     210    874.38299    168654.22    73.082539     73.08254    36.461901          120   -9491.5007    -9851.073   -72709.443   -1804.3269   -1930.9464   -1378.0099    73.082539    63.291336    36.461901   -30684.005   -309906.63 
     220    854.59977     168497.5    73.059896    73.059897    36.450604          120   -7087.5603   -5566.1998   -54725.858    -1875.776   -1518.1444   -2730.4247    73.059896    63.271727    36.450604   -22459.873   -309901.64 
     230      836.279    168347.54    73.038216    73.038216    36.439787          120   -6869.0175   -6257.1805   -46036.706   -1285.5291   -478.42823    -3341.125    73.038216    63.252951    36.439787   -19720.968   -309895.93 
     240    833.92278    168203.95    73.017443    73.017444    36.429424          120   -9074.3335   -7685.8723   -46698.423   -884.88339   -1669.6064   -4000.4761    73.017443    63.234961    36.429424   -21152.876   -309922.27 
     250    847.99463    168065.23    72.997365    72.997366    36.419407          120   -12225.854   -11035.695   -57419.085   -631.73913   -2307.0353   -4111.2882    72.997365    63.217573    36.419407   -26893.545   -309980.96 
     260    855.89097    167929.12    72.977654    72.977654    36.409572          120   -13591.279   -13685.037   -69984.403   -936.55398   -2725.4686   -4084.3604    72.977654    63.200503    36.409572    -32420.24   -310029.58 
     270    834.65431    167793.56    72.958012    72.958012    36.399773          120   -13114.589   -14276.064   -80350.709   -6.1030218   -2243.1494   -3590.6596    72.958012    63.183492    36.399773   -35913.787   -310023.17 
     280    813.41762    167657.21    72.938245    72.938246    36.389911          120   -12719.286   -13329.038    -84360.79   -308.53672   -1726.4283   -2559.7977    72.938245    63.166374    36.389911   -36803.038    -310014.5 
     290    810.46745    167519.66    72.918292    72.918292    36.379956          120   -9337.3771   -9266.7241   -78639.948   -105.76944   -1726.0797   -2728.9627    72.918292    63.149094    36.379956   -32414.683   -310039.67 
     300    818.02228    167381.78    72.898281    72.898282    36.369972          120   -5645.9861    -5284.857   -67985.048    107.83352   -1726.2046   -2841.4331    72.898281    63.131764    36.369972   -26305.297   -310085.01 
     310    809.82595    167245.04    72.878425    72.878425    36.360065          120    -2460.354   -2802.5398   -55803.909   -379.78627   -952.55881   -1620.1469    72.878425    63.114568    36.360065   -20355.601    -310099.5 
     320    801.07631    167110.75    72.858914    72.858914    36.350331          120   -1055.8285   -2257.8488    -46600.02     83.67448   -521.59973   -1469.3931    72.858914    63.097671    36.350331   -16637.899   -310112.38 
     330    790.44194    166979.66    72.839857    72.839857    36.340823          120   -681.24094   -2111.8247   -43459.466    23.782966   -1043.4403   -2593.2797    72.839857    63.081167    36.340823   -15417.511   -310120.06 
     340     789.0217    166851.81    72.821262    72.821263    36.331546          120   -2653.1541   -2132.1714   -46882.812    380.92606    -761.0196   -2773.9975    72.821262    63.065064    36.331546   -17222.713   -310146.41 
     350    795.11267    166726.52     72.80303    72.803031     36.32245          120   -4321.2254   -2793.3868   -57445.092    498.60758   -1279.5438   -2566.9929     72.80303    63.049274     36.32245   -21519.902   -310186.73 
     360    786.60793    166602.54     72.78498    72.784981    36.313445          120   -5482.2847   -3530.0768   -67379.222    197.76308   -1404.9499   -2525.5536     72.78498    63.033642    36.313445   -25463.861   -310198.83 
     370     768.9938    166478.86    72.766965    72.766965    36.304457          120   -4096.9103   -2163.4632   -69533.841   -369.93612   -2797.4396   -2916.9565    72.766965    63.018041    36.304457   -25264.738    -310193.7 
     380     771.3019    166355.49    72.748985    72.748986    36.295486          120   -1574.0224    359.49892   -65695.297   -583.87313   -3760.7905   -3024.1191    72.748985     63.00247    36.295486   -22303.273   -310226.19 
     390    764.90735    166233.21    72.731156    72.731157    36.286591          120    2080.9141     3413.561   -58210.252   -1125.0797   -2739.4396   -2276.6259    72.731156    62.987029    36.286591   -17571.926   -310241.22 
     400    758.52565     166113.2     72.71365    72.713651    36.277857          120    5312.1091    5391.8451   -48789.068   -889.73137   -1290.2984   -1905.7749     72.71365    62.971869    36.277857   -12695.038   -310255.15 
     410    755.99464    165996.65    72.696639    72.696639     36.26937          120    7018.1925     6771.718    -41247.91    118.32328   -391.50696   -776.30478    72.696639    62.957137     36.26937   -9152.6666   -310275.81 
     420     752.8903    165884.29    72.680233    72.680234    36.261185          120    6607.3298    7819.9539   -38339.192    675.42189   -288.42445   -1728.3214    72.680233    62.942929    36.261185    -7970.636   -310295.39 
     430    743.78675    165776.21    72.664446    72.664446    36.253308          120    6077.8998    6849.4488   -41026.339   -288.53581   -659.77206   -2737.0673    72.664446    62.929256    36.253308   -9366.3302   -310303.27 
     440    747.38838    165671.82     72.64919    72.649191    36.245697          120    4537.6187     4838.062   -48228.033   -17.665909   -1058.2853   -1364.7736     72.64919    62.916045    36.245697   -12950.784   -310334.81 
     450    739.51365    165570.11    72.634319     72.63432    36.238278          120    3590.5118    3642.9211   -53085.339   -225.09439    -632.0997   -912.43073    72.634319    62.903166    36.238278   -15283.969   -310344.44 
     460    729.62737    165470.35    72.619728    72.619729    36.230998          120     6116.769    5722.8915   -56150.892    980.08303   -773.55812   -1788.8913    72.619728     62.89053    36.230998    -14770.41   -310349.79 
     470    722.26264    165372.54    72.605417    72.605417    36.223858          120    9295.4712     7984.243   -54006.932    1362.8913   -1304.8052   -1745.7688    72.605417    62.878136    36.223858   -12242.406   -310359.28 
     480    722.34889    165277.21    72.591463    72.591463    36.216896          120    11511.179    11167.177   -50082.722    1326.2099   -1309.5869   -1659.3739    72.591463    62.866052    36.216896   -9134.7887   -310382.76 
     490    713.46523       165185    72.577961    72.577962     36.21016          120    11392.077    13171.935   -43717.311    1303.6232   -395.38394   -143.39108    72.577961    62.854359     36.21016    -6384.433   -310388.88 
     500    706.08375    165096.45     72.56499     72.56499    36.203688          120    11890.604    13926.043   -38528.261    554.11993    1043.0475   -321.02526     72.56499    62.843125    36.203688   -4237.2046   -310395.91 
     510    702.40838    165011.85    72.552593    72.552593    36.197503          120    11423.482    13876.482   -38317.242    210.36596     851.6142    83.634352    72.552593    62.832389    36.197503   -4339.0925   -310409.47 
     520    698.45453    164930.96    72.540736    72.540737    36.191588          120    11256.727     13173.42   -39394.239    1381.0801     1010.301    795.14987    72.540736    62.822121    36.191588   -4988.0303   -310422.71 
     530    702.27048    164853.39    72.529361    72.529362    36.185913          120    11314.381    14308.848   -42114.642    1801.4352    1070.0944    588.59542    72.529361     62.81227    36.185913   -5497.1375   -310450.98 
     540     691.1297    164778.82    72.518424    72.518425    36.180456          120    13992.812    14859.582   -44043.544    1573.2827     99.38823    1346.1054    72.518424    62.802798    36.180456   -5063.7166   -310450.28 
     550     689.7559    164707.15    72.507908    72.507909     36.17521          120     14782.36    16193.312   -44299.435    1264.4512   -120.03667   -78.602921    72.507908    62.793691     36.17521   -4441.2543   -310467.55 
     560     684.1208     164638.4    72.497819     72.49782    36.170176          120    16162.025    18416.663   -40747.558    872.50687   -219.21852   -451.79355    72.497819    62.784954    36.170176   -2056.2899   -310476.72 
     570    684.26319    164572.92    72.488206    72.488206     36.16538          120    16303.632    19073.892    -38676.72    517.33526    289.67337    398.56599    72.488206    62.776628     36.16538   -1099.7319   -310495.83 
     580     672.4247    164510.79    72.479083    72.479083    36.160828          120    17813.796    19410.904   -36165.488    746.37317   -559.73481   -300.42055    72.479083    62.768728    36.160828    353.07076    -310491.5 
     590    673.78819    164452.12    72.470466    72.470466    36.156529          120    17783.139    18658.894   -33948.224   -167.41542   -287.38937   -91.425063    72.470466    62.761265    36.156529    831.26959   -310512.26 
     600    665.42115    164396.84    72.462345    72.462346    36.152478          120    18185.619    19225.859   -33752.859    1172.6885    358.68802   -892.90289    72.462345    62.754232    36.152478    1219.5396   -310513.97 
     610    668.01715    164344.79    72.454697    72.454698    36.148662          120    18665.521    18338.194   -35007.112    2296.5997     1137.895   -169.22657    72.454697    62.747609    36.148662    665.53419   -310535.82 
     620    663.60813    164295.66    72.447476    72.447476    36.145059          120    18158.214    18874.986   -38105.344    1051.4285    601.64556    -445.8176    72.447476    62.741355    36.145059    -357.3812   -310544.56 
     630    661.75361    164249.01    72.440618    72.440618    36.141637          120    18558.764    18233.392   -39094.563     275.9501   -555.74332   -882.59932    72.440618    62.735416    36.141637   -767.46898   -310558.09 
     640    655.06131    164204.55    72.434082    72.434083    36.138377          120    18931.392    17976.171   -39182.133    297.36006   -141.70716   -2075.6987    72.434082    62.729756    36.138377   -758.18997   -310562.36 
     650    647.40505     164162.2    72.427854    72.427855     36.13527          120    20356.315    19375.391   -37989.676    996.42071    379.76218   -1297.3222    72.427854    62.724362     36.13527    580.67668   -310563.72 
     660    648.33125    164122.12    72.421959    72.421959    36.132328          120     20970.93    20611.749   -35153.057    873.86157    264.03653   -1717.7105    72.421959    62.719257    36.132328    2143.2075   -310581.49 
     670    643.10089    164084.59    72.416438    72.416439    36.129574          120    20954.876    21720.085   -31118.466    1590.5741    41.841998   -1594.2253    72.416438    62.714476    36.129574    3852.1649   -310586.25 
     680    638.51675    164049.83    72.411324    72.411324    36.127022          120    18921.708    21631.647   -30248.802    2459.8659    241.26289   -731.02904    72.411324    62.710046    36.127022    3434.8511   -310592.07 
     690    637.38079    164017.63    72.406586    72.406587    36.124659          120    18058.077    21699.273    -30856.59    2164.8503    760.36251    534.03809    72.406586    62.705944    36.124659    2966.9202   -310604.42 
     700     633.0303    163987.75    72.402189    72.402189    36.122465          120     18994.23    21750.732   -31082.596    1349.7026    453.80122    1252.2368    72.402189    62.702135    36.122465    3220.7884   -310609.63 
     710    634.38788    163960.06    72.398114    72.398115    36.120432          120    19313.344    21376.171   -32603.248    310.83298   -126.17212    244.05705    72.398114    62.698607    36.120432    2695.4223   -310626.08 
     720    629.64571    163934.37    72.394332    72.394332    36.118545          120    18979.159    21050.647    -33820.99    167.02932    18.501106    430.81278    72.394332    62.695331    36.118545    2069.6051   -310629.87 
     730    625.47014    163910.37    72.390799    72.390799    36.116782          120    18179.697    20826.044    -34523.78    856.89755    801.17731   -745.28811    72.390799    62.692271    36.116782    1493.9872   -310635.34 
     740    622.44651    163887.85    72.387484    72.387485    36.115128          120    19102.822    20957.814   -35015.088    553.94536    1536.6743   -1296.2103    72.387484    62.689401    36.115128    1681.8494   -310642.09 
     750      616.095    163866.78    72.384381    72.384381     36.11358          120    20149.429    21064.857   -35806.659    850.72794    710.90313   -878.00465    72.384381    62.686713     36.11358    1802.5422   -310641.67 
     760    617.60475    163847.12    72.381487    72.381487    36.112136          120    20495.008    21904.975   -33405.116    858.26869    104.03916   -1577.5907    72.381487    62.684207    36.112136    2998.2888   -310655.93 
     770    616.46234    163829.07    72.378828    72.378829     36.11081          120    20884.755     22089.56   -32227.558     729.7476    822.01008   -1099.4887    72.378828    62.681905     36.11081    3582.2523   -310664.33 
     780     616.5711    163812.71    72.376419    72.376419    36.109608          120    20060.123    22947.692   -30552.525    278.50559    682.23109   -707.79746    72.376419    62.679818    36.109608    4151.7631   -310675.12 
     790    610.24457    163798.11    72.374269     72.37427    36.108535          120    22096.866    23230.917   -30626.983    884.72493    -145.6081   -167.24343    72.374269    62.677956    36.108535    4900.2665   -310673.52 
     800    609.99156    163785.36    72.372392    72.372392    36.107599          120    23063.743    22639.084   -30903.312    501.30254    106.25246   -374.87212    72.372392     62.67633    36.107599    4933.1716    -310683.1 
     810    608.94218    163774.38    72.370774    72.370775    36.106792          120    22135.354    22508.603   -31798.923   -31.269074   -640.28523      673.177    72.370774     62.67493    36.106792    4281.6782   -310690.43 
     820    606.71325    163764.97    72.369388    72.369388      36.1061          120    23233.521    22149.117    -32836.69   -60.384106   -263.34268    250.10066    72.369388    62.673729      36.1061    4181.9827   -310696.08 
     830    605.19794    163757.02    72.368216    72.368217    36.105515          120    23595.892    22299.559    -33200.59    406.11374   -445.49916   -636.21754    72.368216    62.672714    36.105515    4231.6202   -310702.61 
     840    597.71542    163750.49    72.367255    72.367255    36.105036          120    22479.302    23562.626   -31571.867    660.69506   -99.515838   -965.62957    72.367255    62.671881    36.105036    4823.3538   -310696.69 
     850    599.35316    163745.46    72.366513    72.366514    36.104666          120      22455.1    25302.618   -29666.936    986.06361   -136.23821   -1121.1618    72.366513    62.671239    36.104666    6030.2605    -310707.6 
     860    596.36687    163742.17     72.36603     72.36603    36.104424          120    23926.882    26963.329   -28080.029    176.96959    712.84586   -579.74739     72.36603    62.670821    36.104424     7603.394   -310709.32 
     870     598.4685    163740.93    72.365846    72.365847    36.104333          120    24123.409    25622.097   -27649.428   -151.13528   -58.798061    -1240.902    72.365846    62.670662    36.104333    7365.3593   -310720.69 
     880     593.5289    163741.63    72.365949    72.365949    36.104384          120    23773.249    24462.685   -28079.834    140.13827   -70.536443   -902.46883    72.365949    62.670751    36.104384       6718.7   -310718.51 
     890    600.29727       163744    72.366299      72.3663    36.104559          120     22267.16    23819.982   -29368.162    423.88159    148.12374   -317.57572    72.366299    62.671054    36.104559    5572.9932   -310737.48 
     900    581.33826    163747.74     72.36685    72.366851    36.104834          120    22494.304     23633.89   -30246.007   -236.60016   -981.89505    -65.19147     72.36685    62.671531    36.104834    5294.0622   -310707.36 
     910    593.29976    163752.68    72.367577    72.367578    36.105196          120    21501.037    24218.313   -31855.234    949.90561   -895.82336   -32.988162    72.367577    62.672161    36.105196    4621.3719   -310735.78 
     920     591.4447    163758.61    72.368451    72.368451    36.105632          120    20194.335    23851.099   -32674.609    1230.2416   -1518.0629    246.72763    72.368451    62.672918    36.105632    3790.2746   -310737.02 
     930    586.09757    163765.33    72.369441    72.369442    36.106126          120    20205.599    23928.128   -32313.543    521.16864   -802.28361    597.37488    72.369441    62.673775    36.106126    3940.0614   -310731.45 
     940    587.44092    163772.82    72.370544    72.370545    36.106677          120    19994.541    23817.577   -30826.451     296.5187   -228.46618   -527.27231    72.370544     62.67473    36.106677    4328.5559    -310737.7 
     950    589.46434    163781.15    72.371771    72.371771    36.107289          120    21602.277    22999.263   -30573.882    189.13465    590.26438   -269.73713    72.371771    62.675793    36.107289     4675.886   -310745.12 
     960    583.06669    163790.39    72.373132    72.373132    36.107968          120    22304.027    22129.217   -30259.087    106.95512   -316.48761    1367.1704    72.373132    62.676971    36.107968    4724.7191   -310736.62 
     970    587.71609     163800.5    72.374621    72.374622    36.108711          120    22775.723    21410.207   -31272.455     832.1613   -1125.9315    722.71361    72.374621    62.678261    36.108711    4304.4917    -310747.7 
     980    588.31275    163811.37    72.376222    72.376222    36.109509          120    23040.577    20972.539   -31984.852    1207.2934    120.61984   -316.43962    72.376222    62.679647    36.109509    4009.4211   -310750.36 
     990     583.4912    163822.91    72.377921    72.377922    36.110357          120    22447.794     21813.84   -31058.279    797.70617    897.36514   -974.65855    72.377921    62.681119    36.110357    4401.1182   -310742.88 
    1000    589.69508    163835.18    72.379728    72.379729    36.111259          120    22567.145    22725.968   -30577.802    1224.3147    74.055104   -498.92631    72.379728    62.682684    36.111259    4905.1037   -310755.27 
Loop time of 397.109 on 1 procs for 1000 steps with 14848 atoms

Performance: 0.218 ns/day, 110.308 hours/ns, 2.518 timesteps/s
100.0% CPU use with 1 MPI tasks x no OpenMP threads

MPI task timing breakdown:
Section |  min time  |  avg time  |  max time  |%varavg| %total
---------------------------------------------------------------
Pair    | 305.9      | 305.9      | 305.9      |   0.0 | 77.03
Bond    | 0.0006144  | 0.0006144  | 0.0006144  |   0.0 |  0.00
Kspace  | 14.442     | 14.442     | 14.442     |   0.0 |  3.64
Neigh   | 67.718     | 67.718     | 67.718     |   0.0 | 17.05
Comm    | 0.54064    | 0.54064    | 0.54064    |   0.0 |  0.14
Output  | 0.013461   | 0.013461   | 0.013461   |   0.0 |  0.00
Modify  | 8.3416     | 8.3416     | 8.3416     |   0.0 |  2.10
Other   |            | 0.1479     |            |       |  0.04

Nlocal:    14848 ave 14848 max 14848 min
Histogram: 1 0 0 0 0 0 0 0 0 0
Nghost:    46809 ave 46809 max 46809 min
Histogram: 1 0 0 0 0 0 0 0 0 0
Neighs:    1.00438e+07 ave 1.00438e+07 max 1.00438e+07 min
Histogram: 1 0 0 0 0 0 0 0 0 0

Total # of neighbors = 10043825
Ave neighs/atom = 676.443
Ave special neighs/atom = 0
Neighbor list builds = 202
Dangerous builds = 0
PPPM initialization ...
  using 12-bit tables for long-range coulomb (../kspace.cpp:321)
  G vector (1/distance) = 0.202544
  grid = 36 50 24
  stencil order = 5
  estimated absolute RMS force accuracy = 0.00100142
  estimated relative force accuracy = 6.95444e-05
  using double precision FFTs
  3d grid and FFT values/proc = 65395 43200
Setting up Verlet run ...
  Unit style    : metal
  Current step  : 0
  Time step     : 0.001
Per MPI rank memory allocation (min/avg/max) = 151.5 | 151.5 | 151.5 Mbytes
Step Temp Volume Cella Cellb Cellc CellGamma Pxx Pyy Pzz Pxy Pxz Pyz Lx Ly Lz Press PotEng 
       0    589.69508    163835.18    72.379728    72.379729    36.111259          120    22578.202    22737.548    -30572.43    1224.8416    74.134596   -498.96591    72.379728    62.682684    36.111259    4914.4398   -310755.12 
  100000    592.98389    165807.07    72.668954    72.668955    36.255558          120    20047.438    19562.597   -35501.069   -1753.0408    2148.0663   -196.95711    72.668954    62.933161    36.255558    1369.6555   -310868.07 
Loop time of 38760.6 on 1 procs for 100000 steps with 14848 atoms

Performance: 0.223 ns/day, 107.668 hours/ns, 2.580 timesteps/s
100.0% CPU use with 1 MPI tasks x no OpenMP threads

MPI task timing breakdown:
Section |  min time  |  avg time  |  max time  |%varavg| %total
---------------------------------------------------------------
Pair    | 30055      | 30055      | 30055      |   0.0 | 77.54
Bond    | 0.058278   | 0.058278   | 0.058278   |   0.0 |  0.00
Kspace  | 1470       | 1470       | 1470       |   0.0 |  3.79
Neigh   | 6318.1     | 6318.1     | 6318.1     |   0.0 | 16.30
Comm    | 56.637     | 56.637     | 56.637     |   0.0 |  0.15
Output  | 0.00012803 | 0.00012803 | 0.00012803 |   0.0 |  0.00
Modify  | 843.85     | 843.85     | 843.85     |   0.0 |  2.18
Other   |            | 16.95      |            |       |  0.04

Nlocal:    14848 ave 14848 max 14848 min
Histogram: 1 0 0 0 0 0 0 0 0 0
Nghost:    46525 ave 46525 max 46525 min
Histogram: 1 0 0 0 0 0 0 0 0 0
Neighs:    9.9228e+06 ave 9.9228e+06 max 9.9228e+06 min
Histogram: 1 0 0 0 0 0 0 0 0 0

Total # of neighbors = 9922797
Ave neighs/atom = 668.292
Ave special neighs/atom = 0
Neighbor list builds = 18697
Dangerous builds = 0
 
All done!
Total wall time: 10:52:39
