LAMMPS (16 Mar 2018)
Reading data file ...
  triclinic box = (0 0 0) to (9.208 7.97436 18.376) with tilt (-4.604 0 0)
  1 by 1 by 1 MPI processor grid
  reading atoms ...
  116 atoms
Finding 1-2 1-3 1-4 neighbors ...
  special bond factors lj:   0          0          0         
  special bond factors coul: 0          0          0         
  0 = max # of 1-2 neighbors
  0 = max # of 1-3 neighbors
  0 = max # of 1-4 neighbors
  1 = max # of special neighbors
Replicating atoms ...
  triclinic box = (0 0 0) to (73.664 63.7949 36.752) with tilt (-36.832 0 0)
  1 by 1 by 1 MPI processor grid
  14848 atoms
Finding 1-2 1-3 1-4 neighbors ...
  special bond factors lj:   0          0          0         
  special bond factors coul: 0          0          0         
  0 = max # of 1-2 neighbors
  0 = max # of 1-3 neighbors
  0 = max # of 1-4 neighbors
  1 = max # of special neighbors
  Time spent = 0.00507402 secs
PPPM initialization ...
WARNING: System is not charge neutral, net charge = -0.2048 (../kspace.cpp:302)
  using 12-bit tables for long-range coulomb (../kspace.cpp:321)
  G vector (1/distance) = 0.201681
  grid = 36 50 24
  stencil order = 5
  estimated absolute RMS force accuracy = 0.00105653
  estimated relative force accuracy = 7.33721e-05
  using double precision FFTs
  3d grid and FFT values/proc = 65395 43200
Neighbor list info ...
  update every 1 steps, delay 0 steps, check yes
  max neighbors/atom: 2000, page size: 100000
  master list distance cutoff = 15.3
  ghost atom cutoff = 15.3
  binsize = 7.65, bins = 15 9 5
  3 neighbor lists, perpetual/occasional/extra = 3 0 0
  (1) pair morse, perpetual
      attributes: half, newton on
      pair build: half/bin/newton/tri
      stencil: half/bin/3d/newton/tri
      bin: standard
  (2) pair buck, perpetual, copy from (1)
      attributes: half, newton on
      pair build: copy
      stencil: none
      bin: none
  (3) pair lj/cut/coul/long, perpetual, copy from (1)
      attributes: half, newton on
      pair build: copy
      stencil: none
      bin: none
Setting up Verlet run ...
  Unit style    : metal
  Current step  : 0
  Time step     : 0.001
Per MPI rank memory allocation (min/avg/max) = 145.7 | 145.7 | 145.7 Mbytes
Step Temp Volume Cella Cellb Cellc CellGamma Pxx Pyy Pzz Pxy Pxz Pyz Lx Ly Lz Press PotEng 
       0          300    172711.88       73.664    73.664001       36.752          120   -200741.62   -200790.02   -272324.11    24.921543   -7.6308551     10.20218       73.664    63.794896       36.752   -224618.58   -308813.26 
      10    361.89075    172646.79    73.654746    73.654746    36.747383          120   -203102.35   -203204.81    -249564.5    114.94235   -17.785384   -176.61608    73.654746    63.786882    36.747383   -218623.89   -308963.03 
      20     628.2914    172455.59    73.627545    73.627545    36.733812          120   -200931.33   -200588.86   -189335.22    27.058314   -240.00226   -384.70902    73.627545    63.763325    36.733812    -196951.8   -309512.27 
      30    631.53387    172153.78    73.584569    73.584569    36.712371          120   -173402.66   -173020.72   -109505.14   -202.35391   -807.79453   -450.18032    73.584569    63.726107    36.712371   -151976.17   -309573.92 
      40    411.27962    171773.66    73.530369     73.53037     36.68533          120   -129497.72   -129706.18   -31108.942   -628.24899   -1129.7339   -485.23996    73.530369    63.679168     36.68533   -96770.949   -309189.43 
      50    502.47445    171356.85    73.470848    73.470849    36.655634          120   -90467.938   -91046.343   -1332.6188   -632.62301   -1161.0862   -603.52448    73.470848    63.627622    36.655634   -60948.966   -309387.59 
      60     796.4048    170936.26    73.410688    73.410689    36.625619          120    -67136.15   -66974.585   -40804.184   -664.55066   -2044.3315   -461.83242    73.410688    63.575521    36.625619   -58304.973   -309980.67 
      70    962.37351    170526.29    73.351952    73.351953    36.596315          120   -51456.027   -51342.792   -104921.23    -1648.106   -2399.3423   -502.44202    73.351952    63.524654    36.596315   -69240.018   -310356.91 
      80    820.19096    170130.62    73.295176    73.295176    36.567988          120   -42380.064   -43314.098    -150712.7   -1741.2652    -2829.586     32.57957    73.295176    63.475485    36.567988   -78802.287   -310147.79 
      90     560.5959    169750.53    73.240552    73.240553    36.540736          120   -37538.233   -38157.607   -164355.61   -1884.3739   -3288.4288   -447.36032    73.240552     63.42818    36.540736    -80017.15   -309699.82 
     100     585.9793    169389.07     73.18853    73.188531    36.514781          120   -22756.733   -22806.919   -143897.92   -1615.2184    -3031.283   -884.97415     73.18853    63.383127    36.514781   -63153.858   -309789.07 
     110    757.20185    169054.19    73.140266    73.140267    36.490702          120   -3641.4846   -3839.7392   -101846.41    -1665.262   -1975.4731   -995.51634    73.140266    63.341329    36.490702   -36442.545   -310163.76 
     120    757.85277    168754.55    73.097029     73.09703     36.46913          120      7250.17    7454.5243   -51803.531   -1680.5625   -1480.2401   -1233.9822    73.097029    63.303885     36.46913   -12366.279   -310215.86 
     130    654.29367    168494.19    73.059418    73.059418    36.450365          120     5930.356    7394.8193   -12490.149   -1563.0921   -1506.8473   -1280.0393    73.059418    63.271312    36.450365    278.34215   -310060.85 
     140    610.46735    168270.41    73.027059    73.027059    36.434221          120    1295.8057    1483.9331    332.71837   -1141.2103   -1166.4433   -1203.4942    73.027059    63.243289    36.434221    1037.4857   -310012.01 
     150    664.28638    168075.14      72.9988    72.998801    36.420122          120   -6210.4117   -4836.2964   -22593.151   -2007.9163   -797.63819   -447.56408      72.9988    63.218816    36.420122   -11213.286   -310152.46 
     160     724.3609    167895.97    72.972852    72.972852    36.407176          120   -16372.699    -14469.46   -58899.328   -1772.6765   -1222.6743   -554.93142    72.972852    63.196344    36.407176   -29913.829   -310314.25 
     170    706.47442    167719.76    72.947313    72.947314    36.394435          120    -20964.75   -18899.702   -89108.447   -933.71614   -2136.0443   -814.73916    72.947313    63.174227    36.394435   -42990.967   -310330.89 
     180    628.89628    167537.92    72.920941    72.920942    36.381278          120   -17893.393   -15557.267   -106458.97   -866.71901   -2250.2996   -1011.1504    72.920941    63.151388    36.381278   -46636.545   -310230.42 
     190     604.0441    167347.87    72.893358    72.893359    36.367516          120   -12867.225   -11215.677   -104913.65    36.427179    -1659.271   -693.07949    72.893358      63.1275    36.367516   -42998.849   -310225.34 
     200     642.0187    167151.54    72.864841    72.864842    36.353289          120     -8287.42   -7554.2776   -85245.591   -395.85579   -2144.4643   -791.62243    72.864841    63.102804    36.353289   -33695.763   -310340.78 
     210    652.89996    166953.81    72.836098    72.836099    36.338948          120   -4150.9511   -3286.5065   -61244.459   -902.75303    -2028.182   -490.98657    72.836098    63.077912    36.338948   -22893.972    -310406.5 
     220    628.40095    166760.26    72.807941    72.807942      36.3249          120   -757.66372    240.38991   -41619.087   -791.32482    -1494.011   -1693.4957    72.807941    63.053527      36.3249   -14045.454    -310401.8 
     230    603.67703    166575.01    72.780971    72.780971    36.311444          120   -98.178045    477.58918   -33676.026   -565.72537   -1032.4642   -2248.7291    72.780971     63.03017    36.311444   -11098.872    -310394.4 
     240    604.59266       166399    72.755328    72.755328    36.298651          120   -2225.7945   -1167.4846   -38128.102   -186.30332   -1679.5239   -2445.8626    72.755328    63.007963    36.298651    -13840.46   -310434.91 
     250    620.18687    166230.22     72.73072     72.73072    36.286373          120    -4473.301   -4254.1855   -52192.676    447.27702   -1807.5651   -2813.5757     72.73072    62.986652    36.286373   -20306.721   -310506.53 
     260    617.35285    166065.03    72.706621    72.706622     36.27435          120   -4959.0632   -6185.5568   -67467.328    880.44634   -1870.6007    -2936.389    72.706621    62.965781     36.27435   -26203.983   -310543.85 
     270    592.00504    165900.41    72.682587    72.682588    36.262359          120   -3842.4538   -5791.4593   -75785.856    157.78322   -1822.9626   -1641.8771    72.682587    62.944968    36.262359   -28473.256   -310537.94 
     280    573.00883    165735.33    72.658472    72.658473    36.250328          120   -2624.9171    -3270.456   -75150.461    -64.77131   -1219.5946   -1145.1161    72.658472    62.924083    36.250328   -27015.278   -310541.13 
     290    573.47365    165570.86    72.634429     72.63443    36.238333          120    189.25194    852.50747   -66268.563   -8.6054451   -1464.7499   -896.24927    72.634429    62.903262    36.238333   -21742.268   -310581.31 
     300    574.68617    165409.79    72.610868    72.610868    36.226578          120    4111.3451    4802.9134   -53072.832    559.72177    -1854.151   -877.02232    72.610868    62.882857    36.226578   -14719.525   -310621.42 
     310     564.3247    165255.54    72.588291    72.588291    36.215314          120    6875.1025    7612.0785   -38849.744    1006.3633   -1943.1325   -1105.2707    72.588291    62.863304    36.215314   -8120.8543    -310638.2 
     320    553.29934    165110.86    72.567101    72.567101    36.204742          120    7756.1922    8029.6188   -30635.684     1059.143   -1872.7621   -1100.0327    72.567101    62.844953    36.204742   -4949.9575   -310652.28 
     330    548.82298    164976.51    72.547413    72.547414    36.194919          120    6621.1396    6614.8239   -30824.394    775.24009   -1916.1627   -1111.0894    72.547413    62.827903    36.194919     -5862.81   -310678.87 
     340    546.95717    164851.17    72.529036    72.529037    36.185751          120    5550.0704    5522.4485   -38789.773    409.95995   -1168.6302    -1384.768    72.529036    62.811988    36.185751   -9239.0848   -310709.78 
     350    540.64204    164732.33    72.511603    72.511603    36.177053          120    5124.9974    4624.4125   -50319.488    21.549204   -789.16039   -1268.7961    72.511603    62.796891    36.177053   -13523.359   -310732.06 
     360    526.00804    164617.33    72.494726    72.494727    36.168633          120     5307.727    6030.4531   -57454.035   -613.72188   -928.87275   -1055.1444    72.494726    62.782275    36.168633   -15371.952    -310737.3 
     370    510.59767    164504.87    72.478213    72.478214    36.160394          120    7110.2652    8498.2421   -57570.867   -568.81701   -2164.2708   -1249.5255    72.478213    62.767975    36.160394   -13987.453   -310740.02 
     380    504.82043    164395.31     72.46212    72.462121    36.152365          120    9848.6961    11366.941   -52782.979   -1028.6335   -2184.7131   -1237.3762     72.46212    62.754037    36.152365   -10522.447   -310760.57 
     390    505.13231    164289.98    72.446641    72.446642    36.144643          120     12138.11    12191.518   -44738.842   -1282.5057   -2059.0425   -1705.4759    72.446641    62.740632    36.144643   -6803.0712   -310791.56 
     400    497.02579    164190.33     72.43199     72.43199    36.137333          120    13781.066    13951.437   -35487.907   -502.32581   -1782.4159   -1336.3669     72.43199    62.727944    36.137333   -2585.1348   -310805.85 
     410    490.65046    164097.85    72.418389     72.41839    36.130547          120    15183.775    15592.729   -28495.088   -751.35542   -1970.5783   -1143.3488    72.418389    62.716165    36.130547    760.47191   -310822.16 
     420    490.05937     164013.4    72.405963    72.405964    36.124348          120    14625.845    15377.625   -27999.075    -611.5318   -1578.3578   -980.34737    72.405963    62.705404    36.124348    668.13162   -310849.48 
     430    486.65354    163936.22    72.394605    72.394605    36.118681          120    14037.885    14177.999   -31648.486    53.222564   -1900.6962   -252.42695    72.394605    62.695567    36.118681   -1144.2007   -310871.23 
     440    477.35813    163864.69    72.384074    72.384075    36.113427          120     12890.03     12769.01   -37938.148   -191.51301   -2029.2015   -573.93459    72.384074    62.686448    36.113427   -4093.0361   -310881.39 
     450    466.12639     163796.9     72.37409    72.374091    36.108446          120    13017.209    12219.608   -42860.813    166.26536   -1155.3512    -543.9614     72.37409    62.677802    36.108446   -5874.6653   -310887.01 
     460    459.97579    163731.56    72.364466    72.364467    36.103644          120    13795.841    13285.051   -44755.174    306.06411    37.963023   -695.90469    72.364466    62.669466    36.103644   -5891.4276    -310901.7 
     470    454.91576    163668.39    72.355158    72.355159       36.099          120    15119.243    15155.514   -42838.004     251.7375    360.28695   -371.25663    72.355158    62.661406       36.099    -4187.749   -310916.85 
     480    448.78558    163607.98    72.346255    72.346256    36.094559          120    16838.874    16601.036   -37664.767    382.47485   -416.74969    332.11949    72.346255    62.653695    36.094559   -1408.2855   -310929.36 
     490     441.0856    163551.39    72.337913    72.337913    36.090397          120     17507.55    17891.248   -32044.785    775.99189  -0.12339539    603.05576    72.337913    62.646471    36.090397    1118.0044   -310938.73 
     500    438.63509    163499.52    72.330264    72.330265    36.086581          120    18365.586    18900.645   -28122.255    333.24793    549.99413    1019.5299    72.330264    62.639847    36.086581    3047.9921      -310958 
     510    437.57973    163452.89    72.323388    72.323389     36.08315          120    19492.168    19171.346   -27764.196   -339.18543    464.46553    1487.8731    72.323388    62.633892     36.08315     3633.106   -310979.04 
     520    427.29982    163411.33    72.317258    72.317258    36.080091          120    18875.382    18360.749   -30626.981   -860.17705    302.85188    1244.0023    72.317258    62.628583    36.080091      2203.05   -310982.04 
     530    426.20359    163373.77    72.311717    72.311717    36.077327          120    18407.557    17956.307    -34883.35   -702.78508   -250.57958    760.63659    72.311717    62.623784    36.077327    493.50489   -311002.25 
     540    420.94742    163339.08    72.306598    72.306599    36.074773          120    18517.717    18431.055   -37901.143   -440.02266   -869.91979    96.660148    72.306598    62.619352    36.074773   -317.45717   -311013.75 
     550    414.53183    163306.64     72.30181    72.301811    36.072385          120    18727.543    19962.633    -38004.61   -178.57194   -407.15815   -148.78179     72.30181    62.615205    36.072385    228.52194   -311022.13 
     560    411.43442     163276.5    72.297362    72.297363    36.070165          120     19282.89    21322.388   -35959.629   -290.30843    -672.5451   -152.73565    72.297362    62.611353    36.070165    1548.5499   -311037.42 
     570    406.67684    163249.13    72.293322    72.293323     36.06815          120     21797.37    20469.998   -32585.301   -1083.1064   -1353.7047    306.12239    72.293322    62.607854     36.06815    3227.3556   -311048.27 
     580    402.69144    163225.14    72.289782    72.289782    36.066383          120    21822.597    21713.923   -29085.044   -670.49587   -884.94566    126.29637    72.289782    62.604788    36.066383    4817.1586   -311060.26 
     590    397.35027    163205.09    72.286822    72.286822    36.064907          120    21835.391    22685.143   -26649.441   -378.78865   -906.68538    614.50001    72.286822    62.602225    36.064907    5957.0309   -311069.49 
     600    392.66808    163189.24    72.284481    72.284481    36.063739          120    21934.343    22443.075   -27386.538   -30.419735   -1292.0403    469.55713    72.284481    62.600197    36.063739    5663.6265   -311079.52 
     610    388.49024    163177.17    72.282699      72.2827     36.06285          120    21556.547    21870.345   -29805.473    178.14906   -338.77271    474.94536    72.282699    62.598654     36.06285    4540.4728   -311090.06 
     620    381.99525    163168.12    72.281363    72.281363    36.062183          120    21492.943    21486.383   -33071.693    20.272382   -32.648109    719.82293    72.281363    62.597497    36.062183    3302.5443   -311095.43 
     630     378.2884    163161.28    72.280353    72.280354    36.061679          120    21016.764     20736.46   -35353.409   -873.04147   -648.15475    456.59651    72.280353    62.596623    36.061679    2133.2715   -311105.95 
     640    377.51873    163155.98    72.279569     72.27957    36.061288          120    21296.482    20698.822   -35843.186   -851.10183   -694.32207   -532.45826    72.279569    62.595944    36.061288    2050.7058   -311121.53 
     650    373.70815    163152.05    72.278989     72.27899    36.060999          120    22017.236    20853.269   -34217.082   -504.85446   -1052.1859   -1293.7744    72.278989    62.595441    36.060999    2884.4744    -311130.9 
     660    370.09551    163149.83    72.278662    72.278662    36.060835          120     22728.48    21183.059   -30867.626   -447.83174   -1247.9532   -1408.9866    72.278662    62.595158    36.060835    4347.9707    -311140.1 
     670     366.5545    163149.94    72.278679    72.278679    36.060844          120    23129.024     21540.07   -27421.974    103.59389    -1641.695    -1229.231    72.278679    62.595172    36.060844    5749.0398      -311149 
     680     362.1648     163152.9    72.279114    72.279115    36.061061          120     22474.84    21496.442   -26683.771    276.54413   -2001.7732   -11.187517    72.279114     62.59555    36.061061    5762.5037    -311155.9 
     690    358.44315    163158.52    72.279945    72.279946    36.061476          120    21726.631    20606.686   -28788.557    81.712625   -1711.2658    431.34014    72.279945    62.596269    36.061476    4514.9204   -311163.61 
     700    352.71374    163166.15    72.281072    72.281073    36.062038          120    21837.726    20106.766   -30122.348    87.872976   -1184.4583     637.3301    72.281072    62.597246    36.062038    3940.7146   -311167.38 
     710    347.59504    163175.37    72.282433    72.282433    36.062717          120    21940.611    20335.801    -32187.54    9.9121377   -779.14925    870.69426    72.282433    62.598424    36.062717    3362.9573   -311171.22 
     720    348.32071    163185.79    72.283971    72.283972    36.063484          120    22199.564    20349.594   -33854.283   -16.994576   -298.53093    782.73589    72.283971    62.599756    36.063484    2898.2915   -311185.78 
     730    345.14018    163197.15    72.285649     72.28565    36.064321          120     22167.75    20115.919   -33849.815    339.23223   -135.88222    498.03933    72.285649    62.601209    36.064321    2811.2846    -311192.8 
     740    338.97748    163209.38    72.287454    72.287455    36.065222          120    21672.432    20677.788   -32413.272    228.86821   -589.54433    235.78925    72.287454    62.602772    36.065222    3312.3162   -311193.69 
     750    339.20992    163222.66    72.289415    72.289416      36.0662          120    22289.762    20966.359   -30926.376      172.349   -977.96452   -6.1158414    72.289415    62.604471      36.0662    4109.9148   -311206.61 
     760    335.53911    163237.33     72.29158    72.291581    36.067281          120    22208.033    20500.241   -29639.261    -56.54601   -1172.1829    589.24439     72.29158    62.606346    36.067281    4356.3377   -311212.08 
     770    333.20619    163253.44     72.29396     72.29396    36.068468          120    21549.279    20327.446    -29403.36    3.8474772   -1476.9941    530.83598     72.29396    62.608406    36.068468    4157.7881   -311219.12 
     780    331.66133    163270.84    72.296528    72.296528    36.069749          120    21208.017     19344.54   -30084.203    188.93128   -1078.8706    585.96962    72.296528     62.61063    36.069749    3489.4513   -311227.83 
     790    327.86104    163289.16    72.299231    72.299231    36.071098          120    21640.581    18483.109   -31251.407    145.78475   -823.45407    797.44065    72.299231    62.612971    36.071098    2957.4277   -311231.75 
     800    326.41159    163308.07    72.302022    72.302023     36.07249          120    21508.359    18303.568   -31972.234    -36.91177   -336.95344    886.93469    72.302022    62.615389     36.07249     2613.231   -311239.73 
     810    324.25862     163327.4    72.304874    72.304875    36.073913          120    21356.449    18029.734   -32115.638     177.7837    -857.6439    413.76987    72.304874    62.617859    36.073913    2423.5152   -311245.57 
     820     320.3393       163347    72.307766    72.307767    36.075356          120    20639.006    18023.353   -33408.793   -42.091922   -1444.9219    520.69572    72.307766    62.620363    36.075356    1751.1886   -311248.07 
     830    317.21069    163366.57    72.310655    72.310655    36.076797          120    20505.366    17933.634   -33549.787   -53.765663   -2076.0595    477.09559    72.310655    62.622865    36.076797     1629.738   -311251.75 
     840    313.77752    163386.06     72.31353     72.31353    36.078231          120    21158.881    17986.452   -32726.245    380.73287   -2490.2177   -77.269031     72.31353    62.625354    36.078231    2139.6959   -311255.15 
     850    311.88367    163405.71    72.316429    72.316429    36.079678          120    21217.094    18109.446   -31282.808    250.36785   -1700.5514    215.45923    72.316429    62.627865    36.079678    2681.2437   -311260.09 
     860    310.69284     163425.8    72.319392    72.319393    36.081156          120    21188.128    18590.181    -31406.49    91.486113   -1316.1013    762.76595    72.319392    62.630431    36.081156    2790.6062   -311266.02 
     870    306.23555    163446.35    72.322424    72.322424    36.082669          120    20671.065     18623.88   -32660.807   -93.415154   -945.31836    895.00181    72.322424    62.633057    36.082669    2211.3796    -311265.2 
     880    306.26033    163467.06    72.325478    72.325479    36.084193          120     19646.57    18078.296   -34133.673   -882.30075   -863.82984    1112.5796    72.325478    62.635702    36.084193    1197.0645   -311273.01 
     890    305.99641    163487.46    72.328486    72.328487    36.085694          120    19159.868     17443.25   -34406.201    -805.4322   -770.27688    849.78405    72.328486    62.638307    36.085694     732.3057   -311279.52 
     900     301.2406    163507.32    72.331415    72.331415    36.087155          120    20039.432    16641.821   -34397.546   -755.26967     -979.726    1170.2029    72.331415    62.640843    36.087155    761.23576   -311277.56 
     910    303.93419    163526.66    72.334267    72.334267    36.088577          120     20451.84     16706.63   -34401.647   -203.48085   -895.78261    948.54256    72.334267    62.643313    36.088577    918.94119    -311289.5 
     920    301.01435    163545.61    72.337061    72.337061    36.089971          120    20509.514    16716.276   -33880.105    65.461712   -1410.7096    801.82206    72.337061    62.645733    36.089971    1115.2286   -311290.03 
     930    299.07009    163564.25    72.339809     72.33981    36.091343          120    19728.047    16644.371   -33993.235     519.6566   -1265.8969    959.68457    72.339809    62.648113    36.091343    793.06099   -311292.71 
     940    298.88227    163582.45    72.342493    72.342493    36.092681          120    18247.135    16302.015   -34119.078    581.05027   -1569.1535    509.03311    72.342493    62.650437    36.092681    143.35747   -311298.03 
     950    292.93469    163599.95    72.345071    72.345072    36.093968          120    17807.626     16628.46   -34827.872    529.81402   -1670.2475    288.60109    72.345071     62.65267    36.093968   -130.59521   -311292.01 
     960    292.34872    163616.59    72.347524    72.347525    36.095192          120    17857.952    16568.721   -35667.344    626.15729   -1311.3919    1281.2884    72.347524    62.654794    36.095192   -413.55689   -311295.73 
     970    293.22605    163632.31    72.349841    72.349841    36.096348          120    17863.869    16089.756   -35105.091    437.91619   -1314.9067    1460.3314    72.349841    62.656801    36.096348   -383.82216   -311302.18 
     980    295.02004    163647.13    72.352026    72.352026    36.097438          120    18221.043    15910.474   -35518.851    275.80818   -1161.8969    1561.8763    72.352026    62.658693    36.097438   -462.44438   -311310.03 
     990    290.51597     163661.1    72.354084    72.354085    36.098465          120    18406.137    16262.421   -35559.643    373.24854   -825.57199    1430.0022    72.354084    62.660476    36.098465   -297.02815   -311305.25 
    1000    290.42267    163674.29    72.356028    72.356029    36.099435          120    18180.317    16308.691    -35996.67    602.05031   -1030.9431    1065.6028    72.356028    62.662159    36.099435   -502.55402   -311308.76 
Loop time of 372.708 on 1 procs for 1000 steps with 14848 atoms

Performance: 0.232 ns/day, 103.530 hours/ns, 2.683 timesteps/s
100.0% CPU use with 1 MPI tasks x no OpenMP threads

MPI task timing breakdown:
Section |  min time  |  avg time  |  max time  |%varavg| %total
---------------------------------------------------------------
Pair    | 297.21     | 297.21     | 297.21     |   0.0 | 79.74
Bond    | 0.00063539 | 0.00063539 | 0.00063539 |   0.0 |  0.00
Kspace  | 13.704     | 13.704     | 13.704     |   0.0 |  3.68
Neigh   | 53.312     | 53.312     | 53.312     |   0.0 | 14.30
Comm    | 0.49328    | 0.49328    | 0.49328    |   0.0 |  0.13
Output  | 0.012902   | 0.012902   | 0.012902   |   0.0 |  0.00
Modify  | 7.829      | 7.829      | 7.829      |   0.0 |  2.10
Other   |            | 0.1417     |            |       |  0.04

Nlocal:    14848 ave 14848 max 14848 min
Histogram: 1 0 0 0 0 0 0 0 0 0
Nghost:    46804 ave 46804 max 46804 min
Histogram: 1 0 0 0 0 0 0 0 0 0
Neighs:    1.00532e+07 ave 1.00532e+07 max 1.00532e+07 min
Histogram: 1 0 0 0 0 0 0 0 0 0

Total # of neighbors = 10053190
Ave neighs/atom = 677.074
Ave special neighs/atom = 0
Neighbor list builds = 167
Dangerous builds = 0
PPPM initialization ...
  using 12-bit tables for long-range coulomb (../kspace.cpp:321)
  G vector (1/distance) = 0.20256
  grid = 36 50 24
  stencil order = 5
  estimated absolute RMS force accuracy = 0.00100042
  estimated relative force accuracy = 6.94753e-05
  using double precision FFTs
  3d grid and FFT values/proc = 65395 43200
Setting up Verlet run ...
  Unit style    : metal
  Current step  : 0
  Time step     : 0.001
Per MPI rank memory allocation (min/avg/max) = 151.5 | 151.5 | 151.5 Mbytes
Step Temp Volume Cella Cellb Cellc CellGamma Pxx Pyy Pzz Pxy Pxz Pyz Lx Ly Lz Press PotEng 
       0    290.42267    163674.29    72.356028    72.356029    36.099435          120    18191.926    16320.877   -35990.328    602.38687   -1030.7913    1065.5633    72.356028    62.662159    36.099435    -492.5083   -311308.59 
  100000    298.44687    164559.91    72.486296    72.486296    36.164427          120    18344.887    17194.368   -37852.303    1548.2817   -176.49337    1059.2297    72.486296    62.774974    36.164427   -771.01616    -311405.3 
Loop time of 35638.2 on 1 procs for 100000 steps with 14848 atoms

Performance: 0.242 ns/day, 98.995 hours/ns, 2.806 timesteps/s
100.0% CPU use with 1 MPI tasks x no OpenMP threads

MPI task timing breakdown:
Section |  min time  |  avg time  |  max time  |%varavg| %total
---------------------------------------------------------------
Pair    | 29178      | 29178      | 29178      |   0.0 | 81.87
Bond    | 0.055789   | 0.055789   | 0.055789   |   0.0 |  0.00
Kspace  | 1383.6     | 1383.6     | 1383.6     |   0.0 |  3.88
Neigh   | 4222.6     | 4222.6     | 4222.6     |   0.0 | 11.85
Comm    | 48.6       | 48.6       | 48.6       |   0.0 |  0.14
Output  | 0.00012207 | 0.00012207 | 0.00012207 |   0.0 |  0.00
Modify  | 789.64     | 789.64     | 789.64     |   0.0 |  2.22
Other   |            | 16.12      |            |       |  0.05

Nlocal:    14848 ave 14848 max 14848 min
Histogram: 1 0 0 0 0 0 0 0 0 0
Nghost:    46656 ave 46656 max 46656 min
Histogram: 1 0 0 0 0 0 0 0 0 0
Neighs:    9.99839e+06 ave 9.99839e+06 max 9.99839e+06 min
Histogram: 1 0 0 0 0 0 0 0 0 0

Total # of neighbors = 9998389
Ave neighs/atom = 673.383
Ave special neighs/atom = 0
Neighbor list builds = 13142
Dangerous builds = 0
 
All done!
Total wall time: 10:00:12
