LAMMPS (16 Mar 2018)
Reading data file ...
  triclinic box = (0 0 0) to (9.208 7.97436 18.376) with tilt (-4.604 0 0)
  1 by 1 by 1 MPI processor grid
  reading atoms ...
  116 atoms
Finding 1-2 1-3 1-4 neighbors ...
  special bond factors lj:   0          0          0         
  special bond factors coul: 0          0          0         
  0 = max # of 1-2 neighbors
  0 = max # of 1-3 neighbors
  0 = max # of 1-4 neighbors
  1 = max # of special neighbors
Replicating atoms ...
  triclinic box = (0 0 0) to (73.664 63.7949 36.752) with tilt (-36.832 0 0)
  1 by 1 by 1 MPI processor grid
  14848 atoms
Finding 1-2 1-3 1-4 neighbors ...
  special bond factors lj:   0          0          0         
  special bond factors coul: 0          0          0         
  0 = max # of 1-2 neighbors
  0 = max # of 1-3 neighbors
  0 = max # of 1-4 neighbors
  1 = max # of special neighbors
  Time spent = 0.00458717 secs
PPPM initialization ...
WARNING: System is not charge neutral, net charge = -0.2048 (../kspace.cpp:302)
  using 12-bit tables for long-range coulomb (../kspace.cpp:321)
  G vector (1/distance) = 0.201681
  grid = 36 50 24
  stencil order = 5
  estimated absolute RMS force accuracy = 0.00105653
  estimated relative force accuracy = 7.33721e-05
  using double precision FFTs
  3d grid and FFT values/proc = 65395 43200
Neighbor list info ...
  update every 1 steps, delay 0 steps, check yes
  max neighbors/atom: 2000, page size: 100000
  master list distance cutoff = 15.3
  ghost atom cutoff = 15.3
  binsize = 7.65, bins = 15 9 5
  3 neighbor lists, perpetual/occasional/extra = 3 0 0
  (1) pair morse, perpetual
      attributes: half, newton on
      pair build: half/bin/newton/tri
      stencil: half/bin/3d/newton/tri
      bin: standard
  (2) pair buck, perpetual, copy from (1)
      attributes: half, newton on
      pair build: copy
      stencil: none
      bin: none
  (3) pair lj/cut/coul/long, perpetual, copy from (1)
      attributes: half, newton on
      pair build: copy
      stencil: none
      bin: none
Setting up Verlet run ...
  Unit style    : metal
  Current step  : 0
  Time step     : 0.001
Per MPI rank memory allocation (min/avg/max) = 145.7 | 145.7 | 145.7 Mbytes
Step Temp Volume Cella Cellb Cellc CellGamma Pxx Pyy Pzz Pxy Pxz Pyz Lx Ly Lz Press PotEng 
       0         1100    172711.88       73.664    73.664001       36.752          120    -191155.8   -191353.79   -262861.47     87.91246    -27.96819    37.412368       73.664    63.794896       36.752   -215123.69   -308813.26 
      10    734.06615     172695.1    73.661614    73.661615     36.75081          120   -182142.06   -182231.13   -227350.97    149.98194   -33.783489   -341.40737    73.661614     63.79283     36.75081   -197241.39   -308119.63 
      20    1046.7747    172647.11    73.654791    73.654791    36.747405          120   -166306.94   -166702.67   -162800.37    168.57522    -111.5525   -675.23102    73.654791     63.78692    36.747405   -165269.99    -308723.8 
      30    1133.3491     172573.3    73.644293    73.644294    36.742168          120   -120991.45   -121332.33   -83496.155    -176.1148   -839.76631   -606.14706    73.644293    63.777829    36.742168   -108606.65   -308886.89 
      40    911.19708    172482.49    73.631373    73.631373    36.735722          120   -74483.896   -75389.334   -10091.641   -1575.5189   -984.55023    -488.7077    73.631373     63.76664    36.735722   -53321.624   -308448.41 
      50    1041.2109    172383.01    73.617215    73.617216    36.728658          120   -53449.765   -54617.921   -4083.3259   -344.35211   -351.42066   -734.66034    73.617215    63.754379    36.728658   -37383.671   -308683.51 
      60    1249.2433    172277.71    73.602222    73.602223    36.721178          120   -50034.774   -49410.086   -53488.654   -1451.7549    -1535.994   -864.02939    73.602222    63.741395    36.721178   -50977.838    -309070.6 
      70    1355.9102    172165.05    73.586175    73.586175    36.713172          120   -47087.784   -48547.161   -115084.48   -1981.5728    -2184.566   -693.53072    73.586175    63.727497    36.713172   -70239.809   -309276.33 
      80    1236.6398    172042.45    73.568704    73.568704    36.704455          120   -48105.202   -50626.207   -155349.74   -2013.1696    -1912.934   -451.05245    73.568704    63.712367    36.704455   -84693.717   -309059.15 
      90    1036.0168    171908.17    73.549559    73.549559    36.694904          120   -47109.178    -46836.97   -163439.36   -1458.0772   -2625.5809   -2097.0112    73.549559    63.695787    36.694904   -85795.168    -308686.4 
     100    1079.7373    171762.74    73.528811    73.528812    36.684552          120   -31493.334   -30213.396    -142786.4   -1332.0901   -2232.2558   -1898.0847    73.528811    63.677819    36.684552   -68164.377   -308782.59 
     110    1214.2604     171609.4    73.506924    73.506925    36.673633          120   -13804.229   -13350.312   -107291.41   -1935.2208   -618.55103   -2164.2738    73.506924    63.658864    36.673633   -44815.318   -309051.86 
     120    1234.2416    171452.45    73.484508    73.484509    36.662449          120   -4145.4951   -3912.5667   -65414.214   -1642.6786    60.979076   -1689.7278    73.484508    63.639451    36.662449   -24490.759   -309103.12 
     130    1170.6533     171295.7    73.462107    73.462108    36.651273          120   -3576.7337   -1939.1754   -32263.198   -880.11996   -731.35721   -1620.9648    73.462107    63.620052    36.651273   -12593.036   -308996.33 
     140    1137.4179     171141.6    73.440071    73.440071    36.640279          120    -7122.138   -6545.8131   -20085.449   -811.12573   -744.56365   -2943.2926    73.440071    63.600968    36.640279   -11251.133   -308945.17 
     150    1159.7714    170990.82    73.418498    73.418498    36.629516          120   -14389.981   -13142.208   -36531.564   -1531.2088   -906.62243    -2096.606    73.418498    63.582285    36.629516   -21354.584   -309000.49 
     160    1215.2887    170842.36    73.397243    73.397244    36.618911          120   -21791.509   -19256.603   -65253.785   -1946.3965   -1364.3627   -3057.9812    73.397243    63.563878    36.618911   -35433.965    -309122.3 
     170    1230.1954    170694.56    73.376071    73.376071    36.608348          120   -24235.711   -23532.662    -92846.95   -1655.2629   -2395.6485   -3098.0084    73.376071    63.545542    36.608348   -46871.774   -309169.26 
     180    1170.9444    170546.24    73.354812    73.354813    36.597742          120   -21799.509   -20975.373   -109685.24   -763.92657   -1895.3607   -2895.8085    73.354812    63.527131    36.597742   -50820.039   -309075.74 
     190    1151.8841    170397.28     73.33345    73.333451    36.587084          120    -20299.58   -17091.094   -111489.55   -1088.4331    -3961.231   -2266.4767     73.33345    63.508631    36.587084    -49626.74   -309057.42 
     200    1162.6458    170248.44    73.312092    73.312093    36.576428          120   -15657.353   -14384.015   -96795.317   -1684.9389   -3093.4965   -2064.3663    73.312092    63.490135    36.576428   -42278.895   -309094.27 
     210    1198.1909    170101.17    73.290946    73.290947    36.565878          120   -11801.785   -12263.655   -78686.894    -1277.505   -2777.4094   -2300.8249    73.290946    63.471822    36.565878   -34250.778   -309179.38 
     220    1190.8893    169956.99    73.270232    73.270233    36.555544          120   -9007.2289   -7651.9156   -63264.448   -2300.2583   -2227.3309   -3419.7686    73.270232    63.453883    36.555544   -26641.197   -309182.19 
     230    1178.5491    169817.12    73.250128    73.250129    36.545513          120   -10016.789    -7762.437   -54969.894   -1951.9306   -1733.5994    -5653.248    73.250128    63.436472    36.545513   -24249.706   -309174.38 
     240    1171.9316       169682    73.230695    73.230695    36.535818          120    -11265.44   -9617.2552   -52390.225   -901.50364   -1203.0339   -5995.8982    73.230695    63.419643    36.535818   -24424.307   -309178.15 
     250     1181.452    169551.46    73.211911    73.211911    36.526446          120   -13268.264   -12268.929   -59760.319    187.96562   -451.33508   -5090.3678    73.211911    63.403375    36.526446   -28432.504   -309212.83 
     260    1198.3479    169424.76     73.19367    73.193671    36.517346          120   -17607.268   -13731.298   -71529.121    114.08098   -831.87846   -5304.6511     73.19367    63.387578    36.517346   -34289.229   -309263.29 
     270    1193.9006    169300.95    73.175837    73.175837    36.508448          120   -18099.914    -14351.84   -79720.397    248.87332   -1351.7437   -4032.5207    73.175837    63.372134    36.508448   -37390.717   -309273.77 
     280    1174.8878    169179.38    73.158317    73.158318    36.499708          120   -18058.431    -15761.02   -85213.977    583.40648   -242.43437   -2899.0332    73.158317    63.356962    36.499708    -39677.81   -309256.03 
     290    1171.2648    169059.63    73.141051    73.141052    36.491094          120   -16182.213   -12738.909   -83919.039     696.3056   -899.28389   -3691.6142    73.141051    63.342009    36.491094   -37613.387    -309267.2 
     300    1169.0071     168941.8    73.124055    73.124056    36.482614          120   -11995.881   -10519.753   -76808.804   -272.88897    -1020.081   -3754.4844    73.124055     63.32729    36.482614   -33108.146   -309279.92 
     310    1176.9191    168826.36    73.107396    73.107396    36.474302          120   -10024.853   -8199.3629     -66726.9   -241.64232   -2348.0657    -4157.713    73.107396    63.312862    36.474302   -28317.038   -309311.39 
     320    1160.7785    168713.74    73.091136    73.091136     36.46619          120   -7749.4557   -6651.6706     -57369.4    10.131476    -886.5822   -4068.7656    73.091136    63.298781     36.46619   -23923.509   -309296.64 
     330    1169.9331    168604.26    73.075323    73.075324    36.458301          120   -7347.9258   -5149.9075   -52086.953    946.78843   -718.66582   -4608.9367    73.075323    63.285087    36.458301   -21528.262   -309329.77 
     340    1164.5984    168497.94    73.059959    73.059959    36.450635          120   -7229.4941   -6266.5649   -54786.932    500.69259   -821.91501   -5045.1217    73.059959    63.271781    36.450635   -22760.997    -309334.7 
     350    1173.1835    168394.27    73.044972    73.044973    36.443158          120   -8022.5653   -6180.2504   -60077.356    1066.2134    233.96872   -3511.3406    73.044972    63.258802    36.443158   -24760.057   -309367.55 
     360    1168.7942    168292.65    73.030277    73.030277    36.435827          120    -9031.753   -6414.1631   -66592.527    1085.0523    575.19109   -3344.9137    73.030277    63.246076    36.435827   -27346.148   -309375.28 
     370    1160.3859    168192.46    73.015781    73.015781    36.428594          120   -7954.7225   -6008.7926    -71383.68    746.44601    620.51885   -2303.4473    73.015781    63.233522    36.428594   -28449.065    -309375.4 
     380    1158.2415    168093.29    73.001428    73.001429    36.421434          120   -5516.1629   -3686.0589   -72971.069    271.12018    353.80495   -2035.9423    73.001428    63.221092    36.421434   -27391.097   -309387.13 
     390    1150.0628    167995.11    72.987212    72.987212    36.414341          120   -4143.9606   -2676.7654   -69094.548   -236.56847    1729.3071    -2943.614    72.987212     63.20878    36.414341   -25305.091   -309386.79 
     400    1157.3225    167898.01    72.973148    72.973148    36.407324          120   -2185.9071   -990.90872   -62255.217   -523.62787     2349.696   -3556.0261    72.973148      63.1966    36.407324   -21810.678   -309415.75 
     410    1161.3014    167802.33    72.959283    72.959284    36.400407          120     95.33265    2295.9722   -53942.527    419.59765    790.70984   -2624.3959    72.959283    63.184594    36.400407   -17183.741   -309437.55 
     420    1152.4364    167708.52    72.945685    72.945685    36.393622          120    2966.2125    4418.2929    -49038.09    521.23103    222.33244   -3332.2994    72.945685    63.172817    36.393622   -13884.528   -309435.29 
     430     1143.651    167616.82    72.932387    72.932387    36.386988          120    2561.5692    2675.3693   -47502.724    510.58275    1.2758018   -3722.0514    72.932387      63.1613    36.386988   -14088.595   -309433.47 
     440    1151.6559    167527.02     72.91936    72.919361    36.380489          120    902.03975     918.7055   -51674.388   -507.58783    334.78105   -2466.5797     72.91936    63.150019    36.380489   -16617.881   -309462.68 
     450    1147.2504    167438.62    72.906532    72.906532    36.374089          120    1092.6835    754.38643   -56423.389    24.562897   -530.83691   -612.22803    72.906532    63.138909    36.374089   -18192.106   -309467.91 
     460    1145.7522    167351.23    72.893846    72.893847    36.367759          120    1092.8497    1782.7753   -60593.028   -49.295427    330.00116   -388.34493    72.893846    63.127923    36.367759   -19239.134   -309478.51 
     470    1152.2961     167264.6    72.881266    72.881267    36.361483          120    1871.6111    1991.3395   -60736.594   -630.37063    14.307409     542.5436    72.881266    63.117028    36.361483   -18957.881   -309504.92 
     480    1135.3818    167178.67    72.868783    72.868783    36.355255          120    3339.3863     3238.132    -58641.92   -198.81877   -84.718326   -1505.3288    72.868783    63.106217    36.355255     -17354.8   -309486.23 
     490    1143.0626    167093.55    72.856414    72.856415    36.349084          120    4007.2922    4769.8064   -55268.027    1287.5019   -1209.3349     -2758.74    72.856414    63.095506    36.349084   -15496.976   -309514.68 
     500     1134.201    167009.48    72.844193    72.844194    36.342987          120    6239.5194    7391.5653   -51590.609    434.70024   -345.76493   -2727.6593    72.844193    63.084922    36.342987   -12653.175   -309510.63 
     510    1126.5524    166926.77    72.832166    72.832166    36.336986          120     7149.661    8121.1751   -46413.424   -414.30251   -220.91451   -4018.5563    72.832166    63.074506    36.336986   -10380.862   -309508.27 
     520    1131.9896    166845.63    72.820363    72.820364    36.331098          120    7608.6748    7972.7973   -44852.065   -209.10863    417.11018   -2686.1872    72.820363    63.064285    36.331098   -9756.8642   -309530.63 
     530    1138.7693    166766.06    72.808785    72.808785    36.325321          120    7743.9274    7844.6593   -48358.754    -530.3899    62.985564   -3275.9644    72.808785    63.054258    36.325321   -10923.389   -309555.95 
     540    1111.2581    166687.85    72.797401    72.797401    36.319642          120    8193.9324    7273.8398   -48505.736   -2065.2413   -569.35941   -2443.8848    72.797401    63.044399    36.319642   -11012.655   -309514.01 
     550    1127.5865    166610.89    72.786197    72.786197    36.314052          120    9970.6331    9344.5067   -49136.081    -1759.954   -1779.6277   -1565.8158    72.786197    63.034696    36.314052   -9940.3136   -309558.13 
     560    1121.1166     166535.3    72.775187    72.775188    36.308559          120    10896.746    11962.528   -48221.703   -482.46619    -2942.035   -436.90519    72.775187    63.025161    36.308559   -8454.1428   -309556.18 
     570    1120.5551    166461.19     72.76439    72.764391    36.303172          120    12720.235    10951.441    -46822.98   -114.82112   -3099.2559   -719.22222     72.76439    63.015811    36.303172   -7717.1011   -309565.98 
     580    1130.4561    166388.62    72.753815    72.753815    36.297896          120    12136.665    11685.926   -45478.373   -282.02146   -2189.5097   -2589.4688    72.753815    63.006652    36.297896   -7218.5944   -309595.13 
     590    1110.7358    166317.62    72.743465    72.743465    36.292732          120    12589.843    12894.483    -44159.39   -684.64276    -483.7501   -2254.4683    72.743465    62.997689    36.292732   -6225.0215   -309568.14 
     600    1122.8085    166248.21    72.733344    72.733345    36.287683          120    10896.377    12067.562   -42772.503   -678.94008   -447.07363   -2111.6119    72.733344    62.988925    36.287683   -6602.8547   -309601.57 
     610    1116.8843    166180.33    72.723444    72.723445    36.282743          120    11325.167    14026.304   -41455.111   -71.614536   -586.61469   -2304.5088    72.723444    62.980351    36.282743     -5367.88   -309600.72 
     620    1118.0897    166114.07    72.713776    72.713776     36.27792          120    12911.019    14775.155   -40609.111   -41.261163   -1604.1834   -2822.7968    72.713776    62.971978     36.27792   -4307.6454   -309612.34 
     630    1112.6823    166049.49    72.704353    72.704353    36.273218          120    15357.502    14586.081   -41293.208   -719.29784   -2652.4087   -2930.3588    72.704353    62.963817    36.273218   -3783.2084   -309612.03 
     640    1121.7345    165986.62    72.695175    72.695175     36.26864          120    14859.213    14862.726   -41866.606   -1650.1987   -2605.0329   -3237.0132    72.695175    62.955869     36.26864   -4048.2226   -309638.84 
     650    1116.1167    165925.34    72.686229    72.686229    36.264176          120    15173.957    13701.541   -43521.727   -2000.2854   -3226.2877   -3566.7464    72.686229    62.948121    36.264176   -4882.0762   -309637.33 
     660    1105.9765    165865.52    72.677491    72.677492    36.259817          120    14260.069    15994.537   -43520.022   -1503.1016   -3768.8241   -3278.2228    72.677491    62.940555    36.259817   -4421.8056   -309627.22 
     670    1106.1339    165807.12    72.668962    72.668963    36.255562          120    15333.601    17323.324   -42341.166   -534.75487   -3255.6006   -2731.2128    72.668962    62.933168    36.255562   -3228.0805   -309636.22 
     680    1104.3524     165750.3    72.660659    72.660659    36.251419          120    16742.201     18256.93   -38996.625   -193.42686    -3153.774   -2660.6935    72.660659    62.925977    36.251419   -1332.4978    -309641.3 
     690    1104.8309    165695.23    72.652611    72.652612    36.247404          120    17521.975    19266.418    -36650.65   -1268.3885   -3849.3985   -3740.4523    72.652611    62.919007    36.247404    45.914347   -309650.43 
     700    1102.5956    165642.05    72.644838    72.644839    36.243526          120    18714.658    20355.666   -35107.895   -2167.1078   -1906.1663   -4210.4159    72.644838    62.912276    36.243526    1320.8097   -309653.84 
     710    1101.0719    165590.86    72.637354    72.637354    36.239792          120    18840.891    20407.319   -34164.289   -1453.9604   -1014.3087    -2977.589    72.637354    62.905794    36.239792    1694.6404   -309658.62 
     720    1094.2906    165541.66    72.630159     72.63016    36.236202          120    19342.524     21389.75    -33759.88   -810.92406   -2454.4608   -2591.5179    72.630159    62.899564    36.236202    2324.1316      -309653 
     730    1115.1893    165494.43    72.623252    72.623253    36.232756          120    19289.468    20371.116   -35282.426   -789.51047   -2239.6332   -3605.7802    72.623252    62.893582    36.232756     1459.386   -309699.76 
     740    1097.6554    165449.03     72.61661     72.61661    36.229442          120    19291.714    21390.819   -36872.292   -537.77691   -3048.1052   -3135.1065     72.61661     62.88783    36.229442    1270.0804   -309672.26 
     750    1095.3227    165405.33    72.610215    72.610216    36.226252          120    18694.376    21464.947   -36625.519    68.604679   -3358.9821    -2059.178    72.610215    62.882292    36.226252    1177.9347   -309673.82 
     760    1108.1656    165363.24    72.604056    72.604056    36.223179          120     19209.29    21252.071   -37919.598    899.12593   -2225.4242    -3461.923    72.604056    62.876957    36.223179    847.25431   -309703.81 
     770    1097.4714    165322.69    72.598121    72.598121    36.220218          120    21131.994    21161.344   -37512.827    702.89821   -1792.2666     -3131.42    72.598121    62.871817    36.220218    1593.5035   -309689.87 
     780    1092.9759    165283.72    72.592416    72.592416    36.217372          120    21925.565    22323.762   -34545.276    582.57404   -732.71475   -2838.0916    72.592416    62.866877    36.217372    3234.6839    -309686.9 
     790    1097.3471    165246.49    72.586966    72.586967    36.214653          120    24590.232    23630.148   -30747.723    471.91725   -1794.8138   -2785.0676    72.586966    62.862157    36.214653     5824.219   -309700.87 
     800    1093.6462    165211.28     72.58181    72.581811     36.21208          120    23979.698    24641.749   -30497.406   -87.322012   -3007.8474   -1324.5029     72.58181    62.857692     36.21208     6041.347   -309699.17 
     810    1090.2167    165178.06    72.576945    72.576946    36.209653          120    22946.029    24762.421   -31654.468   -582.84668   -3519.6342   -1312.0119    72.576945    62.853479    36.209653    5351.3274   -309696.97 
     820    1098.7981    165146.68    72.572348    72.572349     36.20736          120    23530.108    22986.169   -31693.767     49.28422   -2865.6206   -3485.9687    72.572348    62.849498     36.20736    4940.8365   -309717.26 
     830    1106.9367    165116.99    72.567999       72.568     36.20519          120    22438.348    21238.554    -32807.14    888.76752    -1659.939   -2240.2453    72.567999    62.845732     36.20519    3623.2538   -309736.47 
     840    1093.5244     165088.8    72.563869    72.563869    36.203129          120    22949.809    22295.015   -32231.752    511.20212   -1081.2603   -1246.0892    72.563869    62.842154    36.203129    4337.6911    -309714.2 
     850    1096.4495     165062.1    72.559957    72.559958    36.201178          120    23024.884    24249.783   -31300.954   -119.81678   -1906.5887    -2515.458    72.559957    62.838767    36.201178    5324.5707   -309723.56 
     860    1084.1583       165037    72.556279    72.556279    36.199342          120    22447.772    25047.057   -30242.677     1521.784   -2588.7943   -3462.3505    72.556279    62.835581    36.199342    5750.7171   -309703.23 
     870    1083.3954    165013.47     72.55283    72.552831    36.197622          120    20863.444    26058.917   -30886.493    906.28146   -3777.8837   -4262.0905     72.55283    62.832595    36.197622    5345.2894   -309704.85 
     880    1100.7649    164991.41    72.549598    72.549598    36.196009          120    21524.072    24062.654   -30311.072    1135.9705    -2873.384   -3537.4836    72.549598    62.829795    36.196009    5091.8848   -309741.23 
     890    1091.0154    164970.78    72.546573    72.546573      36.1945          120    23010.344    23482.193   -30158.046    2462.6711   -2829.7321   -2936.2074    72.546573    62.827175      36.1945    5444.8301   -309723.92 
     900    1095.9777    164951.51    72.543749     72.54375    36.193091          120     22293.26    23436.311   -31385.209    710.12447   -3911.0187   -2251.8978    72.543749     62.82473    36.193091    4781.4541   -309734.94 
     910    1092.5092     164933.5    72.541108    72.541109    36.191774          120    22176.966    22690.261   -31911.901   -125.11022   -4401.8768   -4178.1753    72.541108    62.822443    36.191774    4318.4416   -309729.66 
     920     1091.545    164916.64    72.538637    72.538638    36.190541          120    21159.406    23729.878   -30673.952    1027.7324   -3359.7704   -3163.0192    72.538637    62.820303    36.190541     4738.444   -309729.33 
     930    1094.2742    164900.94    72.536335    72.536335    36.189392          120    21387.072    25329.702   -31208.051    1322.9125   -3100.0139   -2627.9137    72.536335    62.818309    36.189392    5169.5741   -309736.42 
     940    1091.2013    164886.45     72.53421    72.534211    36.188332          120    23570.801    27042.949   -29986.989     230.5291   -2924.2249   -3965.4317     72.53421    62.816469    36.188332    6875.5871   -309731.14 
     950    1101.3545    164873.32    72.532285    72.532285    36.187371          120    23961.137    26334.933    -31057.73    597.25535   -2396.7465   -2979.8585    72.532285    62.814802    36.187371    6412.7802   -309750.68 
     960    1079.9806     164861.5    72.530551    72.530551    36.186506          120    25916.578    26329.157   -30621.321     1005.892   -639.97249   -1500.2254    72.530551      62.8133    36.186506    7208.1382   -309709.78 
     970    1093.5468    164851.02    72.529014    72.529015     36.18574          120    25871.024    27033.215   -29354.898   -1199.8173    -2319.493   -1125.7935    72.529014     62.81197     36.18574    7849.7801   -309735.93 
     980    1103.9223    164841.96    72.527685    72.527685    36.185076          120    25225.396    27022.239   -28469.018    261.05011   -3462.9414    -878.9405    72.527685    62.810818    36.185076    7926.2056   -309755.98 
     990      1092.58    164834.29     72.52656     72.52656    36.184515          120    24496.961    26420.216    -26586.64    1083.5753    -3499.739   -1677.9124     72.52656    62.809844    36.184515    8110.1792    -309733.6 
    1000    1097.8018    164827.95    72.525631    72.525632    36.184052          120     22667.32        27065   -28654.859    746.02226   -4266.8095   -1972.9643    72.525631     62.80904    36.184052    7025.8203    -309742.4 
Loop time of 416.479 on 1 procs for 1000 steps with 14848 atoms

Performance: 0.207 ns/day, 115.689 hours/ns, 2.401 timesteps/s
100.0% CPU use with 1 MPI tasks x no OpenMP threads

MPI task timing breakdown:
Section |  min time  |  avg time  |  max time  |%varavg| %total
---------------------------------------------------------------
Pair    | 308.29     | 308.29     | 308.29     |   0.0 | 74.02
Bond    | 0.00054884 | 0.00054884 | 0.00054884 |   0.0 |  0.00
Kspace  | 14.618     | 14.618     | 14.618     |   0.0 |  3.51
Neigh   | 84.229     | 84.229     | 84.229     |   0.0 | 20.22
Comm    | 0.60635    | 0.60635    | 0.60635    |   0.0 |  0.15
Output  | 0.013688   | 0.013688   | 0.013688   |   0.0 |  0.00
Modify  | 8.5527     | 8.5527     | 8.5527     |   0.0 |  2.05
Other   |            | 0.1677     |            |       |  0.04

Nlocal:    14848 ave 14848 max 14848 min
Histogram: 1 0 0 0 0 0 0 0 0 0
Nghost:    46620 ave 46620 max 46620 min
Histogram: 1 0 0 0 0 0 0 0 0 0
Neighs:    9.98349e+06 ave 9.98349e+06 max 9.98349e+06 min
Histogram: 1 0 0 0 0 0 0 0 0 0

Total # of neighbors = 9983493
Ave neighs/atom = 672.38
Ave special neighs/atom = 0
Neighbor list builds = 250
Dangerous builds = 0
PPPM initialization ...
  using 12-bit tables for long-range coulomb (../kspace.cpp:321)
  G vector (1/distance) = 0.202446
  grid = 36 50 24
  stencil order = 5
  estimated absolute RMS force accuracy = 0.00100756
  estimated relative force accuracy = 6.99715e-05
  using double precision FFTs
  3d grid and FFT values/proc = 65395 43200
Setting up Verlet run ...
  Unit style    : metal
  Current step  : 0
  Time step     : 0.001
Per MPI rank memory allocation (min/avg/max) = 150.3 | 150.3 | 150.3 Mbytes
Step Temp Volume Cella Cellb Cellc CellGamma Pxx Pyy Pzz Pxy Pxz Pyz Lx Ly Lz Press PotEng 
       0    1097.8018    164827.95    72.525631    72.525632    36.184052          120    22676.229    27074.216   -28651.849    746.18624   -4266.5043   -1973.0201    72.525631     62.80904    36.184052    7032.8655   -309742.28 
  100000    1094.2682    167367.47    72.896204    72.896204    36.368936          120    21425.722    17994.047   -37976.536   -46.508379    -666.1206   -1456.5974    72.896204    63.129965    36.368936    481.07753   -309900.67 
Loop time of 41370.7 on 1 procs for 100000 steps with 14848 atoms

Performance: 0.209 ns/day, 114.919 hours/ns, 2.417 timesteps/s
100.0% CPU use with 1 MPI tasks x no OpenMP threads

MPI task timing breakdown:
Section |  min time  |  avg time  |  max time  |%varavg| %total
---------------------------------------------------------------
Pair    | 30421      | 30421      | 30421      |   0.0 | 73.53
Bond    | 0.056721   | 0.056721   | 0.056721   |   0.0 |  0.00
Kspace  | 1471       | 1471       | 1471       |   0.0 |  3.56
Neigh   | 8527.2     | 8527.2     | 8527.2     |   0.0 | 20.61
Comm    | 63.746     | 63.746     | 63.746     |   0.0 |  0.15
Output  | 0.00012898 | 0.00012898 | 0.00012898 |   0.0 |  0.00
Modify  | 868.83     | 868.83     | 868.83     |   0.0 |  2.10
Other   |            | 18.51      |            |       |  0.04

Nlocal:    14848 ave 14848 max 14848 min
Histogram: 1 0 0 0 0 0 0 0 0 0
Nghost:    46238 ave 46238 max 46238 min
Histogram: 1 0 0 0 0 0 0 0 0 0
Neighs:    9.83058e+06 ave 9.83058e+06 max 9.83058e+06 min
Histogram: 1 0 0 0 0 0 0 0 0 0

Total # of neighbors = 9830584
Ave neighs/atom = 662.081
Ave special neighs/atom = 0
Neighbor list builds = 25038
Dangerous builds = 0
 
All done!
Total wall time: 11:36:28
