LAMMPS (16 Mar 2018)
Reading data file ...
  triclinic box = (0 0 0) to (9.208 7.97436 18.376) with tilt (-4.604 0 0)
  1 by 1 by 1 MPI processor grid
  reading atoms ...
  116 atoms
Finding 1-2 1-3 1-4 neighbors ...
  special bond factors lj:   0          0          0         
  special bond factors coul: 0          0          0         
  0 = max # of 1-2 neighbors
  0 = max # of 1-3 neighbors
  0 = max # of 1-4 neighbors
  1 = max # of special neighbors
Replicating atoms ...
  triclinic box = (0 0 0) to (73.664 63.7949 36.752) with tilt (-36.832 0 0)
  1 by 1 by 1 MPI processor grid
  14848 atoms
Finding 1-2 1-3 1-4 neighbors ...
  special bond factors lj:   0          0          0         
  special bond factors coul: 0          0          0         
  0 = max # of 1-2 neighbors
  0 = max # of 1-3 neighbors
  0 = max # of 1-4 neighbors
  1 = max # of special neighbors
  Time spent = 0.00351381 secs
PPPM initialization ...
WARNING: System is not charge neutral, net charge = -0.2048 (../kspace.cpp:302)
  using 12-bit tables for long-range coulomb (../kspace.cpp:321)
  G vector (1/distance) = 0.201681
  grid = 36 50 24
  stencil order = 5
  estimated absolute RMS force accuracy = 0.00105653
  estimated relative force accuracy = 7.33721e-05
  using double precision FFTs
  3d grid and FFT values/proc = 65395 43200
Neighbor list info ...
  update every 1 steps, delay 0 steps, check yes
  max neighbors/atom: 2000, page size: 100000
  master list distance cutoff = 15.3
  ghost atom cutoff = 15.3
  binsize = 7.65, bins = 15 9 5
  3 neighbor lists, perpetual/occasional/extra = 3 0 0
  (1) pair morse, perpetual
      attributes: half, newton on
      pair build: half/bin/newton/tri
      stencil: half/bin/3d/newton/tri
      bin: standard
  (2) pair buck, perpetual, copy from (1)
      attributes: half, newton on
      pair build: copy
      stencil: none
      bin: none
  (3) pair lj/cut/coul/long, perpetual, copy from (1)
      attributes: half, newton on
      pair build: copy
      stencil: none
      bin: none
Setting up Verlet run ...
  Unit style    : metal
  Current step  : 0
  Time step     : 0.001
Per MPI rank memory allocation (min/avg/max) = 145.7 | 145.7 | 145.7 Mbytes
Step Temp Volume Cella Cellb Cellc CellGamma Pxx Pyy Pzz Pxy Pxz Pyz Lx Ly Lz Press PotEng 
       0         2000    172711.88       73.664    73.664001       36.752          120    -187565.7   -187931.97   -258856.37    158.77691   -50.847691     68.02383       73.664    63.794896       36.752   -211451.35   -309191.56 
      10    1146.9884    172702.95     73.66273    73.662731    36.751367          120   -165235.59   -165273.58   -209674.94    103.02676   -10.921048   -491.48452     73.66273    63.793796    36.751367   -180061.37   -307552.25 
      20    1481.2775    172678.24    73.659217    73.659218    36.749614          120   -138401.36   -139795.01   -143997.53    441.59959    306.34915   -743.44568    73.659217    63.790754    36.749614    -140731.3   -308184.32 
      30    1615.6596    172641.42    73.653981    73.653982    36.747001          120   -87753.297   -88568.491   -68609.722   -342.57733   -888.95083   -688.65497    73.653981    63.786219    36.747001   -81643.837   -308420.25 
      40    1404.2379    172597.45    73.647728    73.647729    36.743882          120   -47957.944   -49256.843   -6619.2282   -2002.4954   -455.21979   -558.49111    73.647728    63.780804    36.743882   -34611.338   -307987.33 
      50    1554.8167     172550.2    73.641007    73.641008    36.740528          120   -37233.493   -37957.435   -12789.366   -677.66939    412.46847   -1041.7911    73.641007    63.774983    36.740528   -29326.765   -308247.29 
      60    1714.6438    172500.28    73.633905    73.633905    36.736985          120   -38814.565   -38051.272   -59684.532   -1398.5337   -1221.2235   -855.56302    73.633905    63.768833    36.736985    -45516.79   -308523.61 
      70    1802.5511    172446.47    73.626247    73.626248    36.733165          120   -38025.466   -40994.594   -113719.09   -1930.1481   -1897.6099   -399.24254    73.626247    63.762201    36.733165   -64246.383   -308666.62 
      80    1701.4534    172387.24    73.617816    73.617817    36.728958          120   -41355.921    -45137.57    -146773.2   -1503.3861   -1047.3216   -696.45487    73.617816      63.7549    36.728958   -77755.564   -308447.21 
      90    1544.2325    172321.52     73.60846    73.608461     36.72429          120   -39854.941   -40793.688   -151155.04   -595.66941   -2536.9047   -2199.4793     73.60846    63.746797     36.72429   -77267.891   -308118.08 
     100    1605.6955    172249.47      73.5982      73.5982    36.719171          120   -24611.889   -24239.591   -131570.34   -1442.3065   -1709.4812   -2831.7714      73.5982    63.737911    36.719171   -60140.606   -308209.92 
     110    1710.8122    172172.55    73.587242    73.587243    36.713705          120   -9016.7103   -9492.0626   -100967.39   -1903.7003   -848.55918   -3214.2381    73.587242    63.728422    36.713705   -39825.388   -308383.69 
     120    1739.8082    172092.57    73.575847    73.575847    36.708019          120   -1381.8217   -2465.7345    -64586.26   -1108.1001    424.88371   -2293.1132    73.575847    63.718553    36.708019   -22811.272   -308411.09 
     130    1712.1441    172011.11    73.564235    73.564236    36.702226          120    301.01494   -980.36114   -36618.971   -5.1486258    78.968554   -2387.8249    73.564235    63.708497    36.702226   -12432.772   -308329.96 
     140    1694.4938    171929.13    73.552547    73.552547    36.696394          120   -2751.4754   -4658.4504   -27326.721   -118.78392   -1681.4871   -2417.2919    73.552547    63.698375    36.696394   -11578.882   -308268.22 
     150    1718.0985     171846.8    73.540804    73.540805    36.690536          120    -8861.076   -11143.355   -39145.287   -1304.7228   -1878.3981   -818.33676    73.540804    63.688205    36.690536   -19716.573   -308285.37 
     160    1774.6775    171763.56    73.528929    73.528929    36.684611          120   -16489.945   -15418.984   -63205.702   -608.24505   -1174.3898   -2605.0714    73.528929    63.677921    36.684611   -31704.877   -308366.67 
     170    1786.7569    171678.53    73.516794    73.516795    36.678557          120    -16342.34       -18538   -89402.264   -920.53343   -4526.2289   -3047.4504    73.516794    63.667412    36.678557   -41427.535   -308362.94 
     180    1770.8925    171591.04    73.504302    73.504303    36.672325          120   -15388.495   -17972.773   -103054.63    434.15589   -4855.4923   -3036.0401    73.504302    63.656594    36.672325   -45471.966    -308306.9 
     190    1750.7386    171500.86    73.491424    73.491425      36.6659          120   -14920.252   -13143.107   -105440.12    1036.6399   -5167.6026   -3111.0925    73.491424    63.645441      36.6659   -44501.161   -308242.32 
     200    1766.1393    171408.25    73.478194    73.478194    36.659299          120   -11927.587   -12428.088   -96941.319   -611.15204   -5557.2183   -3133.0444    73.478194    63.633983    36.659299   -40432.332   -308244.79 
     210    1788.2435    171313.73    73.464684    73.464685    36.652558          120   -7740.6941   -10452.161   -83815.595    945.33896   -3590.1655    -3177.786    73.464684    63.622283    36.652558   -34002.817   -308259.78 
     220    1800.8332       171218    73.450998    73.450998     36.64573          120   -5394.1082   -5104.6303   -68992.521   -161.20652   -2290.2201   -1498.1508    73.450998    63.610431     36.64573   -26497.086   -308257.07 
     230    1820.3234    171121.83    73.437243    73.437244    36.638868          120   -4441.1343   -3884.8507   -60692.722   -1087.9098   -2276.7592   -2566.7034    73.437243    63.598519    36.638868   -23006.236   -308266.38 
     240    1808.8043     171025.7    73.423489     73.42349    36.632006          120    -4634.061   -7411.3655   -54756.704   -1453.8244   -2585.4801   -4326.6795    73.423489    63.586608    36.632006   -22267.377   -308216.83 
     250    1821.6537    170929.82    73.409766    73.409766    36.625159          120   -6328.9394   -6426.6719    -60211.45   -1064.5812    -1604.929   -3665.7185    73.409766    63.574723    36.625159   -24322.354   -308214.95 
     260    1869.6368    170834.14    73.396067    73.396067    36.618324          120   -6861.9849   -7579.7794   -68124.859    -994.4443   -2401.1565   -2759.5668    73.396067    63.562859    36.618324   -27522.208   -308280.79 
     270    1869.9175    170738.55    73.382374    73.382374    36.611493          120    -8523.668   -10700.331   -75900.451   -986.86352   -2810.2099   -3576.9296    73.382374       63.551    36.611493    -31708.15   -308256.35 
     280    1874.6603    170642.81    73.368656    73.368656    36.604649          120   -11379.531   -11075.955   -84415.919   -765.84685   -3371.2696   -1579.5178    73.368656     63.53912    36.604649   -35623.802   -308240.06 
     290    1869.2761    170546.81    73.354894    73.354894    36.597783          120   -8791.8403   -8846.6387   -84836.742   -1339.6941   -3524.0431   -1548.2289    73.354894    63.527202    36.597783   -34158.407   -308206.29 
     300    1887.4123    170450.76    73.341121    73.341121    36.590911          120   -5878.9409   -6870.5757   -79901.162   -1826.0116   -3188.9926   -2653.3023    73.341121    63.515274    36.590911   -30883.559   -308215.89 
     310    1905.7009    170355.08    73.327395    73.327396    36.584063          120   -4563.6637   -4370.9978   -70306.196   -1974.6003    -3270.881   -2134.4576    73.327395    63.503388    36.584063   -26413.619   -308226.05 
     320    1908.0916    170260.24    73.313785    73.313785    36.577273          120   -1250.2726   -2793.1595   -63538.159   -460.31393   -3314.9653   -2513.8075    73.313785    63.491601    36.577273   -22527.197   -308206.79 
     330    1901.0831    170166.66    73.300351    73.300352    36.570571          120    423.75204   -1176.6364   -57118.708   -1855.6155   -2503.1543   -976.29723    73.300351    63.479967    36.570571   -19290.531   -308169.69 
     340    1908.9573    170074.66    73.287139    73.287139    36.563979          120   -1308.1953   -1356.7167   -56407.069    770.37387   -1333.3023   -288.32631    73.287139    63.468525    36.563979    -19690.66   -308161.45 
     350    1925.2743    169984.28    73.274154    73.274155      36.5575          120   -970.58463   -1464.1625   -58794.356    171.26187   -1222.5264   -2764.7122    73.274154     63.45728      36.5575   -20409.701   -308168.97 
     360    1929.8643    169895.46     73.26139     73.26139    36.551132          120    105.39427   -1756.8883   -66579.136   -703.62252   -1107.6582   -2318.1151     73.26139    63.446225    36.551132   -22743.543   -308154.89 
     370    1940.6227    169808.07    73.248826    73.248826    36.544864          120     657.4571    -638.8042   -68821.997    681.67443   -1131.9473   -1490.8554    73.248826    63.435345    36.544864   -22934.448   -308153.79 
     380    1942.6208    169722.08     73.23646    73.236461    36.538694          120    1012.6362    1031.3141   -70321.959   -604.99823   -1750.4377   -1009.7564     73.23646    63.424636    36.538694   -22759.336   -308135.02 
     390    1955.6159    169637.52    73.224296    73.224296    36.532625          120    1417.3685    1235.1045   -68269.714   -834.65259   -1417.7201   -590.17288    73.224296    63.414101    36.532625   -21872.413   -308138.22 
     400    1954.3397    169554.47    73.212344    73.212345    36.526663          120     3595.886    3802.8603   -60797.547   -539.74972   -2331.3446   -708.28423    73.212344    63.403751    36.526663     -17799.6   -308115.32 
     410    1957.9317    169473.22    73.200647    73.200648    36.520827          120    6409.3737    8183.1089   -58202.954   -726.03989   -1555.7954    664.38085    73.200647    63.393621    36.520827   -14536.824   -308101.65 
     420    1973.2119    169393.99    73.189238    73.189239    36.515135          120    8129.2489    7868.8507   -52637.274   -1673.3397   -3012.6892    192.80934    73.189238     63.38374    36.515135   -12213.058    -308111.3 
     430    1975.5116    169316.92    73.178136    73.178137    36.509596          120    11163.374    8318.7862   -48499.077   -1361.1896   -4703.2152   -276.18674    73.178136    63.374126    36.509596   -9672.3058   -308095.85 
     440     1982.656    169242.09    73.167354    73.167355    36.504217          120    8350.2301    7711.4804   -47252.842   -1040.8814   -3548.6757   -1046.0349    73.167354    63.364788    36.504217   -10397.044   -308090.98 
     450    2006.1231    169169.38    73.156876    73.156876    36.498989          120    8899.2359    7731.9919   -52661.244   -257.89371    -4615.116   -2307.0646    73.156876    63.355713    36.498989   -12010.005      -308118 
     460     2005.028     169098.6    73.146671    73.146671    36.493897          120    9520.4802    9654.6024   -53943.349   -1827.3196   -1969.7893   -864.90613    73.146671    63.346876    36.493897   -11589.422   -308099.73 
     470     1998.682    169029.65    73.136727    73.136728    36.488936          120    10456.673    8048.6986   -53764.261   -1008.5627   -616.14355   -1743.0568    73.136727    63.338264    36.488936   -11752.963   -308071.24 
     480    2002.3002    168962.43    73.127031    73.127032    36.484099          120    10726.516    9119.5703   -57829.324   -706.13368    44.101718       -885.5    73.127031    63.329867    36.484099   -12661.079   -308063.17 
     490    2007.1456    168896.78    73.117559     73.11756    36.479373          120    10431.501    11744.378   -57528.955   -2065.9987    164.27021   -412.21682    73.117559    63.321665    36.479373   -11784.359   -308058.68 
     500    2005.3849    168832.67    73.108307    73.108307    36.474757          120    10918.262    14149.865   -55393.452    281.38132   -953.84695   -1389.0008    73.108307    63.313651    36.474757   -10108.441   -308042.18 
     510    2007.0251    168770.13    73.099278    73.099279    36.470252          120     11955.25    13389.673    -53798.55    1813.1002    892.52507   -2475.5397    73.099278    63.305832    36.470252   -9484.5421   -308032.95 
     520    2027.9475    168709.13     73.09047     73.09047    36.465858          120    11609.698    12835.351   -49441.931    1050.2931    200.64233   -2576.6183     73.09047    63.298204    36.465858   -8332.2941   -308061.67 
     530    2023.9481    168649.67    73.081883    73.081884    36.461574          120    13166.505    15385.983   -47742.794    2105.6882   -612.44707   -1210.7454    73.081883    63.290768    36.461574   -6396.7688   -308043.22 
     540    2017.7439    168591.82    73.073526    73.073527    36.457404          120    15566.501    16469.317    -46975.21    614.59729   -2027.7416   -182.88724    73.073526    63.283531    36.457404   -4979.7974   -308021.73 
     550    2030.3187    168535.56    73.065396    73.065397    36.453348          120    13298.135    13161.795   -46240.141   -558.66915   -1565.0036    1343.0475    73.065396     63.27649    36.453348   -6593.4034   -308038.27 
     560    2044.0167    168480.68    73.057465    73.057466    36.449391          120    14218.031      13882.5   -49331.243   -621.31153   -2580.4772    902.22267    73.057465    63.269621    36.449391    -7076.904   -308058.13 
     570    2047.7237    168427.07    73.049715    73.049716    36.445525          120    16281.147    13794.325   -49540.012    980.52507   -2703.2566    993.24066    73.049715     63.26291    36.445525     -6488.18   -308060.43 
     580    2057.0771    168374.69    73.042142    73.042142    36.441746          120    14955.389    15406.998   -47929.633    2210.8141   -5797.3989   -655.15846    73.042142    63.256351    36.441746   -5855.7489   -308074.83 
     590    2052.9946     168323.5    73.034739    73.034739    36.438053          120    14313.294    16457.983   -44314.929   -330.87309   -6503.3272   -1919.3187    73.034739     63.24994    36.438053   -4514.5506   -308065.45 
     600     2030.365    168273.52     73.02751     73.02751    36.434446          120    15988.866     17633.53   -42214.448   -1339.8779   -4652.1575   -2047.8287     73.02751    63.243679    36.434446   -2864.0171    -308022.2 
     610    2056.5716    168224.82    73.020463    73.020464     36.43093          120     16717.33     19109.22   -42751.558   -2188.1678   -2306.5889   -1759.2238    73.020463    63.237577     36.43093    -2308.336    -308075.8 
     620    2039.1979    168177.37    73.013597    73.013597    36.427505          120    19267.088    17600.115   -42613.894   -1428.5751   -1776.8408   -932.01198    73.013597     63.23163    36.427505   -1915.5636    -308046.2 
     630    2046.4724    168131.12    73.006903    73.006904    36.424165          120    18223.275    18022.839   -42702.831   -592.41604    -2087.228    53.849186    73.006903    63.225834    36.424165   -2152.2393   -308065.86 
     640    2048.1767       168086    73.000372    73.000373    36.420907          120     19477.17    19064.545   -43080.194    1269.5514   -2501.5911    1422.2283    73.000372    63.220178    36.420907   -1512.8266   -308076.83 
     650    2028.0958    168041.98    72.993999       72.994    36.417727          120    18112.106    19199.212    -44441.32    1292.5323    -2699.286    1636.8748    72.993999    63.214658    36.417727   -2376.6674   -308047.63 
     660    2033.4059    167998.94    72.987767    72.987768    36.414618          120    17520.434    19417.741   -43178.976    2164.5278   -2998.6492   -135.90618    72.987767    63.209261    36.414618   -2080.2671   -308068.69 
     670      2049.28    167956.87    72.981673    72.981674    36.411578          120    19139.159    20383.334   -43770.036    1867.0263   -1793.4137   -404.93955    72.981673    63.203984    36.411578   -1415.8476   -308111.09 
     680    2033.3042    167915.75    72.975717    72.975717    36.408606          120    18844.967    23138.202   -44386.918    1415.2689   -2448.6833    290.25188    72.975717    63.198825    36.408606   -801.24985   -308093.09 
     690    2026.9868    167875.57    72.969896    72.969897    36.405702          120    20201.155    23053.929   -40809.369    174.86325    -2903.235    1000.2163    72.969896    63.193785    36.405702    815.23828   -308094.95 
     700    2028.7616    167836.44    72.964226    72.964227    36.402873          120    21206.383     26912.18   -38896.931    632.70014   -2316.5904    1341.0054    72.964226    63.188874    36.402873    3073.8773   -308111.97 
     710    2035.8816    167798.46    72.958722    72.958722    36.400127          120    23133.955    26453.456   -41204.272    1907.5159   -2219.3487   -371.01448    72.958722    63.184107    36.400127    2794.3795   -308140.55 
     720    2034.3035    167761.59    72.953377    72.953378     36.39746          120    21912.417    24001.215   -39646.016    853.91155   -2544.7407    181.40271    72.953377    63.179479     36.39746    2089.2054   -308153.36 
     730    2019.9877    167725.71    72.948177    72.948177    36.394866          120    23579.009    22005.845   -40933.501    256.66498   -4104.9117   -369.02597    72.948177    63.174975    36.394866    1550.4507   -308142.31 
     740     2038.512    167690.73    72.943106    72.943106    36.392336          120    21104.632    21361.835   -43552.875   -1009.9051    -3205.976   -1786.0502    72.943106    63.170583    36.392336   -362.13621    -308194.7 
     750    2012.0278    167656.51    72.938143    72.938143     36.38986          120    20308.509    22412.849   -42520.912   -1879.6342   -2703.1832   -1772.9248    72.938143    63.166285     36.38986    66.815325   -308159.76 
     760    2010.5136    167622.99    72.933282    72.933282    36.387434          120    18889.087    22553.433   -44131.529   -1521.3733   -1674.4168    -553.4438    72.933282    63.162075    36.387434    -896.3364   -308173.07 
     770    2005.8482    167590.13    72.928515    72.928515    36.385056          120     21155.76     25495.54   -40428.105    -226.5512   -847.60115   -241.55187    72.928515    63.157947    36.385056    2074.3985   -308179.95 
     780    2012.3834    167558.06    72.923864    72.923865    36.382736          120    23868.019    24737.728   -41812.803    802.81412   -1124.3606    529.33085    72.923864    63.153919    36.382736    2264.3148   -308207.52 
     790    2014.6817    167526.86    72.919337    72.919338    36.380477          120    26665.691    25892.012   -37555.682    127.13946   -1359.4006    597.58455    72.919337    63.149999    36.380477    5000.6739   -308226.74 
     800    2021.7634    167496.67    72.914957    72.914958    36.378292          120     26076.81    27100.708   -32454.011    -590.9592   -343.70988    1024.2547    72.914957    63.146206    36.378292    6907.8355   -308255.34 
     810    1996.1738     167467.6    72.910738    72.910739    36.376187          120    26499.705    27422.125   -34999.856    -157.6675   -1836.7522    63.004361    72.910738    63.142552    36.376187    6307.3249    -308219.6 
     820    1984.4983    167439.57     72.90667     72.90667    36.374157          120    25830.447    24330.664   -35861.887   -314.59327   -2186.8285    543.67989     72.90667    63.139029    36.374157     4766.408   -308210.98 
     830     1997.236    167412.44    72.902732    72.902733    36.372193          120    22747.628    25753.975   -38778.091    6.0175158   -1245.5432      109.706    72.902732    63.135619    36.372193    3241.1706   -308248.79 
     840    1980.9868    167386.08    72.898905    72.898906    36.370283          120    21316.299    24039.416    -38845.96   -385.67726   -1404.2259   -997.74435    72.898905    63.132304    36.370283    2169.9183   -308229.25 
     850    1983.7157    167360.38    72.895174    72.895175    36.368422          120    24844.913    25210.226   -38979.086   -434.53323   -693.75709   -1392.3791    72.895174    63.129074    36.368422    3692.0176   -308245.92 
     860    1979.9482    167335.41    72.891549     72.89155    36.366613          120    23925.822    24424.956   -40632.171   -219.29723   -2755.6684    514.72623    72.891549    63.125934    36.366613    2572.8689   -308249.03 
     870    1980.8405    167311.08    72.888016    72.888017    36.364851          120    22752.045    24670.068   -41937.146    160.75083   -763.86353    1173.8931    72.888016    63.122874    36.364851    1828.3223   -308259.16 
     880    2000.9374    167287.34    72.884568    72.884569    36.363131          120    22367.026    26422.373   -38196.931    832.97508    1070.6201   -218.12849    72.884568    63.119888    36.363131    3530.8224   -308306.23 
     890    1991.5525    167264.28    72.881219    72.881219     36.36146          120    22674.922    27447.574   -38767.639    503.95609     123.3143   -928.94751    72.881219    63.116988     36.36146    3784.9525   -308296.85 
     900     1970.605    167241.91     72.87797    72.877971    36.359839          120    24513.146    28151.389   -36960.915    555.17241    2551.2464   -96.039479     72.87797    63.114174    36.359839    5234.5401   -308263.62 
     910    1984.4954    167220.32    72.874834    72.874835    36.358274          120    24899.223    26554.722   -34084.613   -1519.9232     2547.184    556.95593    72.874834    63.111458    36.358274    5789.7774   -308297.13 
     920    1984.3327    167199.55    72.871816    72.871817    36.356768          120    25579.946    25005.753    -36035.78    452.88482    249.96156    2241.5275    72.871816    63.108845    36.356768    4849.9728   -308301.42 
     930    1986.1978    167179.49    72.868902    72.868903    36.355315          120    26479.593    23235.162   -38466.547    1563.0946   -1160.3154   -504.35546    72.868902    63.106321    36.355315    3749.4027   -308311.02 
     940    1993.5428    167160.03    72.866075    72.866075    36.353904          120    24797.055    24152.978   -41540.275    287.96936   -2369.5852    371.04602    72.866075    63.103873    36.353904    2469.9193    -308330.1 
     950    1975.7151    167141.08    72.863322    72.863322     36.35253          120    24499.003    25319.492   -39806.552   -127.39912   -3053.1748    797.87079    72.863322    63.101488     36.35253    3337.3143   -308300.73 
     960     1964.502     167122.7     72.86065    72.860651    36.351198          120    24049.713    26085.458   -37362.868    -691.8045   -1725.2438    2076.2527     72.86065    63.099175    36.351198    4257.4343   -308283.04 
     970    1979.4903    167104.95     72.85807    72.858071     36.34991          120    24892.988     26465.51   -36923.171    1428.6338   -991.96637     1929.465     72.85807     63.09694     36.34991    4811.7758   -308313.64 
     980     1989.903    167087.86    72.855587    72.855588    36.348671          120    24627.739     26918.81   -34481.085    1645.1418   -2045.2071     1059.254    72.855587     63.09479    36.348671    5688.4884   -308334.06 
     990    1973.4055    167071.47    72.853205    72.853206    36.347483          120    27292.362    24922.135   -34572.177    747.08861   -1457.9252    870.51125    72.853205    63.092727    36.347483    5880.7733   -308303.63 
    1000    1968.2913    167055.79    72.850925    72.850925    36.346345          120    28272.993    25213.791   -36084.653    2025.5975   -1691.0588    1184.9331    72.850925    63.090752    36.346345    5800.7101   -308294.14 
Loop time of 439.964 on 1 procs for 1000 steps with 14848 atoms

Performance: 0.196 ns/day, 122.212 hours/ns, 2.273 timesteps/s
100.0% CPU use with 1 MPI tasks x no OpenMP threads

MPI task timing breakdown:
Section |  min time  |  avg time  |  max time  |%varavg| %total
---------------------------------------------------------------
Pair    | 305.65     | 305.65     | 305.65     |   0.0 | 69.47
Bond    | 0.00052047 | 0.00052047 | 0.00052047 |   0.0 |  0.00
Kspace  | 14.654     | 14.654     | 14.654     |   0.0 |  3.33
Neigh   | 110.33     | 110.33     | 110.33     |   0.0 | 25.08
Comm    | 0.70538    | 0.70538    | 0.70538    |   0.0 |  0.16
Output  | 0.013762   | 0.013762   | 0.013762   |   0.0 |  0.00
Modify  | 8.4155     | 8.4155     | 8.4155     |   0.0 |  1.91
Other   |            | 0.1909     |            |       |  0.04

Nlocal:    14848 ave 14848 max 14848 min
Histogram: 1 0 0 0 0 0 0 0 0 0
Nghost:    46364 ave 46364 max 46364 min
Histogram: 1 0 0 0 0 0 0 0 0 0
Neighs:    9.84946e+06 ave 9.84946e+06 max 9.84946e+06 min
Histogram: 1 0 0 0 0 0 0 0 0 0

Total # of neighbors = 9849462
Ave neighs/atom = 663.353
Ave special neighs/atom = 0
Neighbor list builds = 327
Dangerous builds = 0
PPPM initialization ...
  using 12-bit tables for long-range coulomb (../kspace.cpp:321)
  G vector (1/distance) = 0.202227
  grid = 36 50 24
  stencil order = 5
  estimated absolute RMS force accuracy = 0.00102138
  estimated relative force accuracy = 7.09308e-05
  using double precision FFTs
  3d grid and FFT values/proc = 65395 43200
Setting up Verlet run ...
  Unit style    : metal
  Current step  : 0
  Time step     : 0.001
Per MPI rank memory allocation (min/avg/max) = 149.2 | 149.2 | 149.2 Mbytes
Step Temp Volume Cella Cellb Cellc CellGamma Pxx Pyy Pzz Pxy Pxz Pyz Lx Ly Lz Press PotEng 
       0    1968.2913    167055.79    72.850925    72.850925    36.346345          120    28278.407    25219.331    -36084.25    2025.8757   -1691.1178    1184.7308    72.850925    63.090752    36.346345    5804.4959   -308294.08 
  100000    1992.7431    169613.78    73.220879    73.220879    36.530921          120    19256.565    19954.137   -40769.654   -1121.1076   -1525.6721   -2279.0304    73.220879    63.411142    36.530921   -519.65069   -308381.32 
Loop time of 43185.3 on 1 procs for 100000 steps with 14848 atoms

Performance: 0.200 ns/day, 119.959 hours/ns, 2.316 timesteps/s
100.0% CPU use with 1 MPI tasks x no OpenMP threads

MPI task timing breakdown:
Section |  min time  |  avg time  |  max time  |%varavg| %total
---------------------------------------------------------------
Pair    | 29562      | 29562      | 29562      |   0.0 | 68.45
Bond    | 0.055612   | 0.055612   | 0.055612   |   0.0 |  0.00
Kspace  | 1468.5     | 1468.5     | 1468.5     |   0.0 |  3.40
Neigh   | 11230      | 11230      | 11230      |   0.0 | 26.00
Comm    | 70.605     | 70.605     | 70.605     |   0.0 |  0.16
Output  | 0.00012898 | 0.00012898 | 0.00012898 |   0.0 |  0.00
Modify  | 836.59     | 836.59     | 836.59     |   0.0 |  1.94
Other   |            | 18.13      |            |       |  0.04

Nlocal:    14848 ave 14848 max 14848 min
Histogram: 1 0 0 0 0 0 0 0 0 0
Nghost:    45974 ave 45974 max 45974 min
Histogram: 1 0 0 0 0 0 0 0 0 0
Neighs:    9.70084e+06 ave 9.70084e+06 max 9.70084e+06 min
Histogram: 1 0 0 0 0 0 0 0 0 0

Total # of neighbors = 9700840
Ave neighs/atom = 653.343
Ave special neighs/atom = 0
Neighbor list builds = 33303
Dangerous builds = 0
 
All done!
Total wall time: 12:07:06
