LAMMPS (16 Mar 2018)
Reading data file ...
  triclinic box = (0 0 0) to (9.208 7.97436 18.376) with tilt (-4.604 0 0)
  1 by 1 by 1 MPI processor grid
  reading atoms ...
  116 atoms
Finding 1-2 1-3 1-4 neighbors ...
  special bond factors lj:   0          0          0         
  special bond factors coul: 0          0          0         
  0 = max # of 1-2 neighbors
  0 = max # of 1-3 neighbors
  0 = max # of 1-4 neighbors
  1 = max # of special neighbors
Replicating atoms ...
  triclinic box = (0 0 0) to (73.664 63.7949 36.752) with tilt (-36.832 0 0)
  1 by 1 by 1 MPI processor grid
  14848 atoms
Finding 1-2 1-3 1-4 neighbors ...
  special bond factors lj:   0          0          0         
  special bond factors coul: 0          0          0         
  0 = max # of 1-2 neighbors
  0 = max # of 1-3 neighbors
  0 = max # of 1-4 neighbors
  1 = max # of special neighbors
  Time spent = 0.00270891 secs
PPPM initialization ...
WARNING: System is not charge neutral, net charge = -0.2048 (../kspace.cpp:302)
  using 12-bit tables for long-range coulomb (../kspace.cpp:321)
  G vector (1/distance) = 0.201681
  grid = 36 50 24
  stencil order = 5
  estimated absolute RMS force accuracy = 0.00105653
  estimated relative force accuracy = 7.33721e-05
  using double precision FFTs
  3d grid and FFT values/proc = 65395 43200
Neighbor list info ...
  update every 1 steps, delay 0 steps, check yes
  max neighbors/atom: 2000, page size: 100000
  master list distance cutoff = 15.3
  ghost atom cutoff = 15.3
  binsize = 7.65, bins = 15 9 5
  3 neighbor lists, perpetual/occasional/extra = 3 0 0
  (1) pair morse, perpetual
      attributes: half, newton on
      pair build: half/bin/newton/tri
      stencil: half/bin/3d/newton/tri
      bin: standard
  (2) pair buck, perpetual, copy from (1)
      attributes: half, newton on
      pair build: copy
      stencil: none
      bin: none
  (3) pair lj/cut/coul/long, perpetual, copy from (1)
      attributes: half, newton on
      pair build: copy
      stencil: none
      bin: none
Setting up Verlet run ...
  Unit style    : metal
  Current step  : 0
  Time step     : 0.001
Per MPI rank memory allocation (min/avg/max) = 145.7 | 145.7 | 145.7 Mbytes
Step Temp Volume Cella Cellb Cellc CellGamma Pxx Pyy Pzz Pxy Pxz Pyz Lx Ly Lz Press PotEng 
       0         1400    172711.88       73.664    73.664001       36.752          120   -194755.06   -195009.15   -265953.36    111.53373    -35.59469    47.616189       73.664    63.794896       36.752   -218572.52   -309191.56 
      10    872.07501    172698.55    73.662105    73.662105    36.751054          120    -180574.4   -180622.91   -225957.76    142.45519   -34.305138   -391.62109    73.662105    63.793255    36.751054   -195718.36   -308182.92 
      20     1199.378    172660.85    73.656744    73.656745     36.74838          120   -159297.37   -160008.88   -160609.96    259.73402    -9.584959   -720.97732    73.656744    63.788612     36.74838   -159972.07   -308810.03 
      30    1310.7428    172603.49    73.648586    73.648587     36.74431          120   -110362.77   -110928.32   -82706.094   -228.97379   -867.94845   -655.19492    73.648586    63.781547     36.74431    -101332.4   -309013.08 
      40    1089.2397    172533.59    73.638643    73.638644    36.739349          120   -64733.794   -65841.378   -11786.359   -1836.2695   -856.28505   -496.31352    73.638643    63.772936    36.739349   -47453.843   -308570.05 
      50    1226.4825    172457.48    73.627815    73.627815    36.733947          120   -47485.186   -48676.321   -10116.631   -421.75342    -59.21006   -855.80435    73.627815    63.763559    36.733947   -35426.046   -308813.82 
      60    1414.0243    172376.91    73.616346    73.616346    36.728225          120    -46909.17   -46228.533   -59009.939   -1488.1867   -1391.1153   -988.79857    73.616346    63.753626    36.728225   -50715.881   -309154.96 
      70    1514.4724    172290.35    73.604021    73.604022    36.722076          120   -45529.899   -47564.531   -117283.58   -1989.9156   -2083.6987   -575.90751    73.604021    63.742953    36.722076   -70126.002   -309337.46 
      80    1407.8145    172195.63    73.590531    73.590532    36.715345          120   -47935.717   -50901.837   -155033.15   -1934.6599   -1637.1677   -692.86577    73.590531     63.73127    36.715345   -84623.567   -309128.02 
      90    1222.7319    172091.27    73.575661    73.575661    36.707926          120   -46297.345   -46426.321   -161789.03    -1233.258   -2525.0964   -2370.1007    73.575661    63.718392    36.707926   -84837.567   -308767.52 
     100    1270.7674    171977.57    73.559454    73.559455    36.699841          120   -30230.435   -29203.953   -141146.54   -1392.1583   -2246.3468   -2255.5161    73.559454    63.704357    36.699841    -66860.31   -308854.29 
     110    1398.1822    171856.94    73.542251    73.542252    36.691258          120   -12900.431   -12979.256   -107560.33   -2272.7776   -556.89458   -2781.4879    73.542251    63.689458    36.691258   -44480.007   -309089.27 
     120    1422.4423    171732.44    73.524488    73.524489    36.682395          120   -3912.4438   -3912.7221   -67973.981   -1674.7609    143.93703   -1692.9186    73.524488    63.674075    36.682395   -25266.382   -309126.27 
     130    1379.7954    171606.77    73.506549     73.50655    36.673446          120   -3042.2866   -2337.2168   -36602.495   -474.35517   -538.18146   -1896.3056    73.506549     63.65854    36.673446   -13993.999   -309035.84 
     140    1344.6909    171481.64    73.488679     73.48868     36.66453          120   -6584.7009   -6785.7128   -25227.138   -421.38445   -1491.9644   -2829.7775    73.488679    63.643064     36.66453    -12865.85   -308960.33 
     150    1363.5664    171357.48    73.470938    73.470939    36.655679          120   -12730.183   -13280.065   -39432.129   -1158.2201   -1673.7822   -1800.5887    73.470938      63.6277    36.655679   -21814.126   -308988.48 
     160    1424.0073    171233.55    73.453222    73.453222     36.64684          120   -20675.212   -17809.522   -66027.827   -1356.7321   -1689.3021   -2855.9187    73.453222    63.612357     36.64684    -34837.52   -309098.15 
     170    1442.9676    171108.64    73.435357    73.435357    36.637927          120   -21871.723   -22427.438   -93124.013   -1564.4723    -3665.799    -3222.984    73.435357    63.596885    36.637927   -45807.724   -309130.17 
     180    1401.8722    170981.84    73.417212    73.417213    36.628874          120   -20064.346   -20903.812   -109040.76    -208.8655   -2815.1636    -3418.725    73.417212    63.581172    36.628874   -50002.974   -309049.67 
     190    1380.9146    170853.02    73.398769     73.39877    36.619673          120   -19229.096   -16850.977   -110610.43   -525.45291   -5223.4712   -2742.7276    73.398769    63.565199    36.619673   -48896.835   -309008.66 
     200     1401.903    170722.73    73.380107    73.380108    36.610362          120   -15482.047   -14944.423   -100107.45   -1389.6724   -5142.9816   -2494.7533    73.380107    63.549037    36.610362   -43511.305   -309046.75 
     210     1426.576       170592    73.361373    73.361374    36.601015          120    -12341.17    -11847.55   -83083.578     118.3674   -3529.4666   -2548.0321    73.361373    63.532813    36.601015   -35757.433   -309092.98 
     220    1431.1638     170462.1    73.342747    73.342747    36.591722          120   -8588.5122   -8718.3336   -68533.278   -1743.5241   -2140.7431   -3404.2704    73.342747    63.516682    36.591722   -28613.374   -309100.18 
     230    1420.8151    170334.11    73.324386    73.324387    36.582562          120   -8125.4639   -8783.3449   -60738.453   -2018.6696   -2617.9538   -4981.6164    73.324386    63.500782    36.582562    -25882.42   -309079.03 
     240    1430.3961    170208.62    73.306375    73.306375    36.573576          120   -8465.6258   -9793.1262   -56595.476    -1296.356   -1986.7752   -5449.0782    73.306375    63.485183    36.573576   -24951.409   -309097.51 
     250    1429.8383    170085.87    73.288748    73.288749    36.564782          120   -9760.9391   -10546.042   -61816.738   -866.83833   -2299.7834   -4832.5707    73.288748    63.469918    36.564782   -27374.573   -309097.61 
     260     1452.097    169965.68    73.271482    73.271482    36.556167          120   -12325.278   -13739.002   -72497.165   -1060.0212    -1925.618   -4452.1946    73.271482    63.454965    36.556167   -32853.815   -309144.09 
     270    1460.0953    169847.53    73.254499      73.2545    36.547694          120   -15013.582   -13885.937    -82482.85   -1249.7163   -2792.0138   -3239.1832    73.254499    63.440258    36.547694   -37127.456   -309165.73 
     280     1438.038    169730.98     73.23774     73.23774    36.539333          120   -14903.894   -15077.403   -86006.187   -509.95091   -2903.3311   -1755.3032     73.23774    63.425744    36.539333   -38662.495    -309131.6 
     290    1457.2411    169615.93    73.221188    73.221189    36.531075          120   -14199.757   -12084.516   -83827.381   -640.63794   -2858.8531   -1416.6215    73.221188     63.41141    36.531075   -36703.885   -309177.84 
     300    1443.8975    169502.64    73.204883    73.204884     36.52294          120   -9363.3234   -9187.5552   -79351.076   -1120.6667   -2805.0277   -3067.0419    73.204883    63.397289     36.52294   -32633.985   -309163.13 
     310    1445.4035    169391.58    73.188891    73.188892    36.514962          120   -7521.8853   -6621.7593   -71711.949   -574.37689   -1931.2191    -4172.243    73.188891     63.38344    36.514962   -28618.531   -309177.36 
     320    1437.9367    169283.13    73.173268    73.173268    36.507167          120    -7677.681   -6036.0603   -64742.753      544.679   -2123.8621   -4942.5962    73.173268    63.369909    36.507167   -26152.165   -309175.08 
     330    1435.2911    169177.45    73.158039     73.15804    36.499569          120   -7199.2575   -6317.8223   -59555.764    949.22174    -1897.457   -4352.1735    73.158039    63.356721    36.499569   -24357.614   -309183.15 
     340    1439.7075    169074.62    73.143214    73.143214    36.492172          120   -4650.7918   -6224.3212   -59675.197    1976.6076   -1080.7727   -4131.8927    73.143214    63.343882    36.492172    -23516.77   -309203.51 
     350    1453.5334    168974.55     73.12878     73.12878    36.484971          120   -4408.9387   -7057.9299    -62441.06    310.96281   -101.65212   -3256.3494     73.12878    63.331382    36.484971   -24635.976   -309243.06 
     360    1441.5365    168876.91    73.114692    73.114693    36.477943          120   -6714.0674   -7073.6082   -67995.039   -85.487899   -522.93433   -2691.3668    73.114692    63.319181    36.477943   -27260.905   -309234.37 
     370     1434.508    168781.25    73.100884    73.100884    36.471053          120   -7128.4239   -5629.7247   -71434.366   -630.18811   -3212.2095   -3831.3695    73.100884    63.307223    36.471053   -28064.172   -309233.82 
     380    1440.0771    168687.28    73.087315    73.087315    36.464284          120   -5775.0073   -5683.5308   -72780.685   -632.94405   -3086.9354   -2887.0556    73.087315    63.295472    36.464284   -28079.741   -309258.63 
     390    1428.0543    168594.84    73.073962    73.073962    36.457622          120   -5341.7577    -5397.842   -70913.224   -2354.0812   -1554.3571   -3910.9572    73.073962    63.283908    36.457622   -27217.608   -309249.45 
     400    1436.3023    168503.88    73.060819    73.060819    36.451064          120   -3454.1451    -3051.669   -65790.999   -1638.8406    568.90801    -3698.506    73.060819    63.272526    36.451064   -24098.938   -309277.76 
     410    1441.6842    168414.58     73.04791     73.04791    36.444624          120   -529.49379   -522.33308   -59065.752    -1865.718    -403.0312   -3874.6644     73.04791    63.261346    36.444624   -20039.193   -309300.73 
     420    1432.0448     168327.2    73.035273    73.035274    36.438319          120    1176.7809    1130.3236    -54159.66   -1863.3492   -273.52262   -3589.4308    73.035273    63.250403    36.438319   -17284.185   -309294.43 
     430    1428.9067    168241.85    73.022928    73.022929     36.43216          120    3157.7237    1186.9459   -53336.213   -1322.2411   -808.37418   -4584.9154    73.022928    63.239712     36.43216   -16330.514   -309300.71 
     440    1434.7481    168158.46     73.01086    73.010861     36.42614          120    1389.1044    424.44707    -56124.28   -1789.3895   -1821.3633   -4990.0246     73.01086    63.229261     36.42614   -18103.576   -309324.14 
     450     1441.758    168076.64    72.999018    72.999018    36.420231          120   -537.98154    324.07232   -59408.206   -3020.3572   -478.50031   -3817.9668    72.999018    63.219004    36.420231   -19874.038   -309349.17 
     460    1426.6414    167996.03    72.987346    72.987346    36.414408          120   -612.32523   -329.01828   -61765.528   -3848.8614   -1711.6094   -2086.9911    72.987346    63.208896    36.414408    -20902.29   -309332.04 
     470    1430.1295    167916.39    72.975809     72.97581    36.408652          120    1803.9614    1844.7293   -62572.154   -2618.0732     -753.357   -3547.1921    72.975809    63.198905    36.408652   -19641.155   -309350.83 
     480    1415.0619    167837.71     72.96441     72.96441    36.402965          120    3801.7133    5098.7924   -59436.195   -3087.0449   -246.32271   -3421.1764     72.96441    63.189033    36.402965    -16845.23   -309333.21 
     490    1427.2241    167760.16    72.953171    72.953171    36.397357          120     5092.397    5585.7392   -57070.415   -1901.7864   -830.52555   -2977.1391    72.953171      63.1793    36.397357   -15464.093   -309367.58 
     500    1419.3253    167683.82    72.942103    72.942103    36.391835          120    4991.2047    6942.0783   -53420.342     779.8298   -488.92888   -3527.3065    72.942103    63.169715    36.391835    -13829.02   -309363.32 
     510    1413.2915     167608.7    72.931209     72.93121    36.386401          120    5738.5888     6089.764   -53409.825    207.82813    659.51536   -2751.3358    72.931209    63.160281    36.386401   -13860.491   -309361.52 
     520    1415.3918    167534.74     72.92048    72.920481    36.381047          120    6079.0504    4687.3333   -52117.519   -965.21019   -1083.4164   -2412.9144     72.92048    63.150989    36.381047   -13783.712   -309376.45 
     530    1414.2701    167461.84    72.909902    72.909902     36.37577          120    6414.3258    7013.9324   -51895.427   -1213.0408   -1137.2554   -2329.8293    72.909902    63.141828     36.37577    -12822.39   -309384.15 
     540    1424.9487    167389.98    72.899472    72.899472    36.370566          120    5311.8014    7140.7402   -52839.283   -1015.5091   -1321.4691   -2589.0326    72.899472    63.132795    36.370566   -13462.247   -309414.52 
     550    1400.0497    167319.07    72.889176    72.889176    36.365429          120    7568.1077    9709.9958   -53940.189   -1516.2452   -1398.8485   -2021.3734    72.889176    63.123879    36.365429   -12220.695   -309376.07 
     560    1410.2016    167249.11    72.879015    72.879016     36.36036          120    8880.1715    8912.5088   -54130.347   -1267.6329    83.335718    -2242.996    72.879015    63.115079     36.36036   -12112.556   -309405.01 
     570    1432.1489    167180.05    72.868984    72.868985    36.355355          120    9332.5729    9385.0858   -55170.627   -826.37329    -973.3725    -2005.548    72.868984    63.106392    36.355355   -12150.989   -309457.01 
     580    1397.3342    167111.87    72.859076    72.859077    36.350412          120    9669.6237    10221.816    -53433.59   -637.17277   -651.48648   -1897.9275    72.859076    63.097812    36.350412   -11180.717   -309399.42 
     590    1413.8103    167044.57    72.849294    72.849295    36.345532          120    10233.749    9519.1489   -52142.728   -1560.6576   -1031.5513    -1663.107    72.849294     63.08934    36.345532    -10796.61   -309440.66 
     600    1408.1786    166978.17    72.839641    72.839641    36.340716          120    11804.335    11264.134    -49096.71   -2141.8716   -1943.6591   -992.18837    72.839641     63.08098    36.340716   -8676.0802   -309438.63 
     610    1422.1135    166912.83    72.830138    72.830138    36.335975          120    12531.767    10103.286    -48076.92   -963.36078   -2072.0474   -1167.2369    72.830138     63.07275    36.335975   -8480.6223   -309473.77 
     620    1421.8912    166848.53    72.820785    72.820786    36.331308          120    11546.726    11384.979    -47898.97   -1654.7168   -1256.5251     -2906.73    72.820785     63.06465    36.331308   -8322.4217   -309482.24 
     630    1413.7378    166785.24    72.811577    72.811577    36.326714          120    12640.159    11852.402   -47713.348    460.99326   -354.76586   -2792.1331    72.811577    63.056676    36.326714   -7740.2623   -309475.11 
     640    1400.4223    166722.98    72.802514    72.802515    36.322193          120    11893.275    12277.392   -48143.263    505.79989   -1624.1038   -2804.0969    72.802514    63.048828    36.322193   -7990.8655   -309457.97 
     650    1409.3629    166661.69    72.793592    72.793593    36.317741          120    13264.799    13481.092   -48183.277   -961.65743   -1185.8918   -3307.7331    72.793592    63.041101    36.317741   -7145.7953   -309484.11 
     660    1397.5708     166601.4    72.784814    72.784814    36.313362          120    13350.055    13488.617   -46650.361    -224.6801   -1283.5561   -2199.7844    72.784814    63.033499    36.313362   -6603.8963   -309469.37 
     670    1406.5556    166542.14    72.776182    72.776183    36.309055          120    14279.359     14771.91   -44957.163   -1039.7538   -1391.2209   -2977.2595    72.776182    63.026023    36.309055   -5301.9647   -309493.92 
     680    1395.3439       166484    72.767713    72.767714     36.30483          120     15423.71    15003.983   -42829.747   -494.30499   -1029.8503   -3309.6826    72.767713    63.018689     36.30483   -4134.0177   -309479.29 
     690    1402.5663    166427.07    72.759418    72.759419    36.300692          120    15733.324    16197.395    -41144.05   -641.19083   -2338.8666   -3890.2475    72.759418    63.011505    36.300692   -3071.1103    -309499.9 
     700    1394.5251    166371.44     72.75131     72.75131    36.296646          120    16513.105    15638.171   -40883.253    240.16115   -2780.8713   -3977.0778     72.75131    63.004483    36.296646    -2910.659   -309491.18 
     710    1399.3161    166317.06    72.743383    72.743384    36.292691          120    16450.349    15042.577   -43405.874    308.79921   -2483.0992   -3572.3361    72.743383    62.997619    36.292691   -3970.9826   -309507.25 
     720    1390.9004     166263.8    72.735618    72.735618    36.288817          120    16811.293    14379.736   -44356.027   -36.966043    -3965.983   -4252.6979    72.735618    62.990893    36.288817   -4388.3329   -309496.99 
     730    1392.9642    166211.57       72.728    72.728001    36.285017          120    18602.963    14885.664   -43531.531    1110.2477   -2131.0374   -4094.4545       72.728    62.984297    36.285017   -3347.6349   -309506.35 
     740    1409.5851    166160.45    72.720543    72.720544    36.281296          120     19993.35    15891.108   -41063.544   -314.70127   -936.60522   -4127.3446    72.720543    62.977838    36.281296   -1726.3618   -309542.95 
     750    1404.7418    166110.59    72.713268    72.713269    36.277667          120     22249.21    17693.611   -38299.123   -235.34552   -517.71402   -4120.7026    72.713268    62.971538    36.277667    547.89942   -309539.07 
     760    1393.1116    166062.18    72.706205    72.706205    36.274142          120    23299.363    19392.629   -37932.811   -618.77368   -1827.4673   -3097.3077    72.706205    62.965421    36.274142    1586.3935   -309521.38 
     770    1403.9012    166015.31    72.699363    72.699364    36.270729          120    21451.298    20114.796    -37694.91    540.41539   -1623.8815   -825.22732    72.699363    62.959496    36.270729    1290.3947   -309547.85 
     780    1394.7501    165969.89    72.692733    72.692734    36.267421          120     20059.55    19475.182    -37197.71    326.84924   -781.34231      428.657    72.692733    62.953754    36.267421    779.00758   -309534.54 
     790     1404.272    165925.83    72.686299      72.6863    36.264211          120    19780.937     18987.03   -36877.115   -152.37056   -2779.0962   -322.91057    72.686299    62.948182    36.264211    630.28412   -309557.95 
     800    1397.5254    165883.04    72.680051    72.680052    36.261094          120    20982.563     19422.34   -38500.067   -893.48042   -2625.7221   -2414.0405    72.680051    62.942771    36.261094    634.94562   -309549.42 
     810    1381.1452    165841.52    72.673987    72.673988    36.258069          120     22042.05    21348.171   -38449.053   -850.12834   -2889.6918   -2920.6743    72.673987     62.93752    36.258069    1647.0562   -309522.13 
     820    1405.5705    165801.29     72.66811    72.668111    36.255137          120    20982.488    17929.019   -38928.487    -1566.072   -4481.5065    -1958.635     72.66811     62.93243    36.255137   -5.6599627   -309573.29 
     830      1389.58    165762.19    72.662396    72.662397    36.252286          120    20104.927    18202.469   -38905.157   -2080.3757   -4113.1337   -601.67583    72.662396    62.927482    36.252286   -199.25363   -309546.34 
     840    1388.9163    165724.14    72.656836    72.656837    36.249512          120    20234.474    20295.434   -39299.916   -1611.3535   -3580.1277   -1758.0455    72.656836    62.922667    36.249512    409.99728    -309548.9 
     850     1391.769    165687.18    72.651435    72.651435    36.246817          120     22255.33    19700.439    -38326.19   -1558.8327   -2378.0461   -2624.7046    72.651435    62.917989    36.246817    1209.8597   -309557.34 
     860    1401.0481    165651.34    72.646196    72.646196    36.244203          120    22057.635    19012.053   -38774.645    171.01822   -3015.6523   -803.34337    72.646196    62.913452    36.244203    765.01463   -309577.69 
     870    1391.5331    165616.57    72.641114    72.641114    36.241668          120    22385.581    20728.991   -38668.258    700.69062   -2432.4023   -879.94589    72.641114     62.90905    36.241668    1482.1044   -309561.58 
     880     1386.796    165582.91    72.636191    72.636192    36.239212          120    22139.667    21387.159   -36826.959    319.13343   -2126.6708   -2618.6559    72.636191    62.904787    36.239212    2233.2891    -309554.4 
     890    1400.1738    165550.38    72.631434    72.631435    36.236838          120     23242.85    20731.945   -37303.589   -32.900892   -2141.4861   -3770.8098    72.631434    62.900668    36.236838    2223.7354    -309581.7 
     900    1404.5264    165518.97    72.626841    72.626841    36.234547          120    23437.867    22527.361   -38117.726    -309.0886   -272.89347   -4095.6233    72.626841     62.89669    36.234547    2615.8339   -309591.57 
     910    1388.1598     165488.7    72.622414    72.622414    36.232338          120    23881.142    24518.584   -35935.724   -736.24372   -1431.5865   -1506.7973    72.622414    62.892856    36.232338    4154.6673   -309561.24 
     920    1394.9219    165459.67    72.618166    72.618167    36.230219          120    24768.248    21695.759   -35155.819    700.05407   -2775.1856   -844.64677    72.618166    62.889178    36.230219    3769.3963   -309574.91 
     930    1385.5018     165431.8     72.61409     72.61409    36.228185          120    22677.938     20647.77    -36035.03    498.89984   -3338.5614   -1187.9726     72.61409    62.885647    36.228185    2430.2262    -309557.1 
     940    1393.4701    165404.95     72.61016    72.610161    36.226225          120    23365.776    21560.352   -35519.986    101.21333   -2684.4196   -396.99092     72.61016    62.882244    36.226225    3135.3805   -309572.94 
     950    1380.5827    165379.12     72.60638    72.606381    36.224339          120    24747.566    23226.265   -35481.241    824.37945   -3410.1365   -1261.3157     72.60638    62.878971    36.224339    4164.1967   -309548.12 
     960     1388.474    165354.42    72.602765    72.602766    36.222535          120    25297.744      24720.4   -34992.115    626.67621   -1601.4987   -1116.6611    72.602765     62.87584    36.222535    5008.6764    -309563.6 
     970    1389.0067     165330.9    72.599323    72.599324    36.220818          120    27012.015    24317.752   -37597.407    138.81674   -1736.8607   -1064.9381    72.599323    62.872859    36.220818    4577.4531   -309563.21 
     980    1402.8553    165308.48    72.596042    72.596042    36.219181          120    26650.045    24382.374   -37597.202    1041.4363   -3277.3523   -1956.3263    72.596042    62.870017    36.219181    4478.4059   -309588.84 
     990    1401.9944    165287.16     72.59292     72.59292    36.217623          120    25751.382    26966.511   -34670.764   -188.32493   -3212.2525   -2953.7045     72.59292    62.867313    36.217623    6015.7098   -309585.86 
    1000    1403.8912    165267.02    72.589971    72.589972    36.216152          120    24639.132    25069.429   -34391.904   -1728.1302   -2711.1245   -1817.3868    72.589971     62.86476    36.216152    5105.5521   -309588.25 
Loop time of 324.096 on 1 procs for 1000 steps with 14848 atoms

Performance: 0.267 ns/day, 90.027 hours/ns, 3.086 timesteps/s
100.0% CPU use with 1 MPI tasks x no OpenMP threads

MPI task timing breakdown:
Section |  min time  |  avg time  |  max time  |%varavg| %total
---------------------------------------------------------------
Pair    | 230.4      | 230.4      | 230.4      |   0.0 | 71.09
Bond    | 0.00014448 | 0.00014448 | 0.00014448 |   0.0 |  0.00
Kspace  | 10.742     | 10.742     | 10.742     |   0.0 |  3.31
Neigh   | 76.311     | 76.311     | 76.311     |   0.0 | 23.55
Comm    | 0.44627    | 0.44627    | 0.44627    |   0.0 |  0.14
Output  | 0.010455   | 0.010455   | 0.010455   |   0.0 |  0.00
Modify  | 6.0883     | 6.0883     | 6.0883     |   0.0 |  1.88
Other   |            | 0.1007     |            |       |  0.03

Nlocal:    14848 ave 14848 max 14848 min
Histogram: 1 0 0 0 0 0 0 0 0 0
Nghost:    46616 ave 46616 max 46616 min
Histogram: 1 0 0 0 0 0 0 0 0 0
Neighs:    9.95631e+06 ave 9.95631e+06 max 9.95631e+06 min
Histogram: 1 0 0 0 0 0 0 0 0 0

Total # of neighbors = 9956306
Ave neighs/atom = 670.549
Ave special neighs/atom = 0
Neighbor list builds = 280
Dangerous builds = 0
PPPM initialization ...
  using 12-bit tables for long-range coulomb (../kspace.cpp:321)
  G vector (1/distance) = 0.202403
  grid = 36 50 24
  stencil order = 5
  estimated absolute RMS force accuracy = 0.00101029
  estimated relative force accuracy = 7.01604e-05
  using double precision FFTs
  3d grid and FFT values/proc = 65395 43200
Setting up Verlet run ...
  Unit style    : metal
  Current step  : 0
  Time step     : 0.001
Per MPI rank memory allocation (min/avg/max) = 150.3 | 150.3 | 150.3 Mbytes
Step Temp Volume Cella Cellb Cellc CellGamma Pxx Pyy Pzz Pxy Pxz Pyz Lx Ly Lz Press PotEng 
       0    1403.8912    165267.02    72.589971    72.589972    36.216152          120    24647.117    25077.313   -34389.986   -1728.0219   -2711.0706   -1817.3621    72.589971     62.86476    36.216152    5111.4815   -309588.14 
  100000    1390.7458    167740.82    72.950367    72.950368    36.395959          120    20787.093    23053.372   -36471.213    1866.9643   -2105.3689    174.64122    72.950367    63.176872    36.395959    2456.4175   -309738.79 
Loop time of 31603.9 on 1 procs for 100000 steps with 14848 atoms

Performance: 0.273 ns/day, 87.789 hours/ns, 3.164 timesteps/s
100.0% CPU use with 1 MPI tasks x no OpenMP threads

MPI task timing breakdown:
Section |  min time  |  avg time  |  max time  |%varavg| %total
---------------------------------------------------------------
Pair    | 22477      | 22477      | 22477      |   0.0 | 71.12
Bond    | 0.013131   | 0.013131   | 0.013131   |   0.0 |  0.00
Kspace  | 1073.3     | 1073.3     | 1073.3     |   0.0 |  3.40
Neigh   | 7388.4     | 7388.4     | 7388.4     |   0.0 | 23.38
Comm    | 45.964     | 45.964     | 45.964     |   0.0 |  0.15
Output  | 9.9897e-05 | 9.9897e-05 | 9.9897e-05 |   0.0 |  0.00
Modify  | 609.08     | 609.08     | 609.08     |   0.0 |  1.93
Other   |            | 9.927      |            |       |  0.03

Nlocal:    14848 ave 14848 max 14848 min
Histogram: 1 0 0 0 0 0 0 0 0 0
Nghost:    46220 ave 46220 max 46220 min
Histogram: 1 0 0 0 0 0 0 0 0 0
Neighs:    9.80871e+06 ave 9.80871e+06 max 9.80871e+06 min
Histogram: 1 0 0 0 0 0 0 0 0 0

Total # of neighbors = 9808706
Ave neighs/atom = 660.608
Ave special neighs/atom = 0
Neighbor list builds = 26982
Dangerous builds = 0
 
All done!
Total wall time: 8:52:09
