LAMMPS (16 Mar 2018)
Reading data file ...
  triclinic box = (0 0 0) to (9.208 7.97436 18.376) with tilt (-4.604 0 0)
  1 by 1 by 1 MPI processor grid
  reading atoms ...
  116 atoms
Finding 1-2 1-3 1-4 neighbors ...
  special bond factors lj:   0          0          0         
  special bond factors coul: 0          0          0         
  0 = max # of 1-2 neighbors
  0 = max # of 1-3 neighbors
  0 = max # of 1-4 neighbors
  1 = max # of special neighbors
Replicating atoms ...
  triclinic box = (0 0 0) to (73.664 63.7949 36.752) with tilt (-36.832 0 0)
  1 by 1 by 1 MPI processor grid
  14848 atoms
Finding 1-2 1-3 1-4 neighbors ...
  special bond factors lj:   0          0          0         
  special bond factors coul: 0          0          0         
  0 = max # of 1-2 neighbors
  0 = max # of 1-3 neighbors
  0 = max # of 1-4 neighbors
  1 = max # of special neighbors
  Time spent = 0.00443292 secs
PPPM initialization ...
WARNING: System is not charge neutral, net charge = -0.2048 (../kspace.cpp:302)
  using 12-bit tables for long-range coulomb (../kspace.cpp:321)
  G vector (1/distance) = 0.201681
  grid = 36 50 24
  stencil order = 5
  estimated absolute RMS force accuracy = 0.00105653
  estimated relative force accuracy = 7.33721e-05
  using double precision FFTs
  3d grid and FFT values/proc = 65395 43200
Neighbor list info ...
  update every 1 steps, delay 0 steps, check yes
  max neighbors/atom: 2000, page size: 100000
  master list distance cutoff = 15.3
  ghost atom cutoff = 15.3
  binsize = 7.65, bins = 15 9 5
  3 neighbor lists, perpetual/occasional/extra = 3 0 0
  (1) pair morse, perpetual
      attributes: half, newton on
      pair build: half/bin/newton/tri
      stencil: half/bin/3d/newton/tri
      bin: standard
  (2) pair buck, perpetual, copy from (1)
      attributes: half, newton on
      pair build: copy
      stencil: none
      bin: none
  (3) pair lj/cut/coul/long, perpetual, copy from (1)
      attributes: half, newton on
      pair build: copy
      stencil: none
      bin: none
Setting up Verlet run ...
  Unit style    : metal
  Current step  : 0
  Time step     : 0.001
Per MPI rank memory allocation (min/avg/max) = 145.7 | 145.7 | 145.7 Mbytes
Step Temp Volume Cella Cellb Cellc CellGamma Pxx Pyy Pzz Pxy Pxz Pyz Lx Ly Lz Press PotEng 
       0          400    172711.88       73.664    73.664001       36.752          120   -206737.33   -206804.43   -277781.66     32.79508   -10.173022    13.603454       73.664    63.794896       36.752   -230441.14   -309191.56 
      10    407.30064    172661.88    73.656891    73.656892    36.748453          120   -206810.09   -206893.04   -253798.42    131.65326   -30.452372   -200.34244    73.656891     63.78874    36.748453   -222500.52   -309231.47 
      20    686.37903    172515.48    73.636068    73.636068    36.738064          120   -201257.34   -200938.41   -193411.92    40.277855     -279.094   -445.99497    73.636068    63.770706    36.738064   -198535.89   -309795.59 
      30    718.99707    172284.67    73.603213    73.603214    36.721673          120   -169335.05    -169047.1    -114137.6   -187.39728   -852.19339   -498.51149    73.603213    63.742253    36.721673   -150839.92   -309903.61 
      40    500.43642    171992.99    73.561652    73.561653    36.700937          120   -120575.22   -120947.77   -34081.515   -819.49728   -1157.6817    -523.1181    73.561652     63.70626    36.700937    -91868.17   -309511.99 
      50    593.82221    171669.79    73.515546    73.515547    36.677934          120   -82299.678   -83142.266   -6068.4985   -651.68181   -1118.4619   -639.17831    73.515546    63.666331    36.677934   -57170.148   -309706.25 
      60    872.47465    171335.98    73.467864    73.467865    36.654145          120   -63912.797   -63682.594   -47893.105   -831.69511   -1966.3575   -500.28486    73.467864    63.625038    36.654145   -58496.165    -310264.3 
      70    1029.0673     170998.6    73.419612    73.419612    36.630071          120   -53284.514   -53332.452    -111599.4   -1817.4395   -2463.9579   -666.65735    73.419612    63.583249    36.630071   -72738.787   -310613.66 
      80    897.79429    170658.69    73.370931    73.370931    36.605784          120   -47702.248   -49036.703   -157288.95   -1860.0575   -2676.4298    6.6189169    73.370931    63.541091    36.605784   -84675.968   -310417.64 
      90    645.45532    170317.88    73.322057    73.322058      36.5814          120   -43440.421   -44171.585   -170612.41   -2055.2894    -3123.283   -724.92798    73.322057    63.498765      36.5814   -86074.804   -309979.38 
     100    661.01212    169981.73    73.273787    73.273788    36.557317          120   -27528.498     -27793.5      -149704   -1854.1035   -2859.3736   -1077.6992    73.273787    63.456962    36.557317   -68342.001   -310047.32 
     110    826.42657       169661    73.227673    73.227673     36.53431          120   -7561.2243   -8042.7287   -108232.27   -1871.8678   -1496.3253   -1345.1174    73.227673    63.417026     36.53431   -41278.739   -310407.11 
     120    843.09149    169366.93    73.185341    73.185342    36.513191          120    3301.9011    3249.5894   -59878.877   -1839.0554   -948.25351    -1544.704    73.185341    63.380365    36.513191   -17775.796   -310485.25 
     130     747.0494    169105.96    73.147732    73.147733    36.494427          120    2784.6794    3999.8852   -21900.619   -1627.9431   -992.47504   -1674.9608    73.147732    63.347795    36.494427   -5038.6847   -310341.81 
     140    696.28879    168877.98    73.114846    73.114846    36.478019          120   -1467.7737   -1504.3882   -8745.5897   -1090.1194   -920.00818   -1784.1364    73.114846    63.319314    36.478019   -3905.9172   -310278.13 
     150     738.3522    168677.46    73.085896    73.085897    36.463576          120    -9150.928   -8311.0093   -28593.285   -1787.2606   -582.18225   -1341.5965    73.085896    63.294244    36.463576   -15351.741   -310393.13 
     160    800.01892    168494.81    73.059508    73.059508     36.45041          120   -18874.993   -17681.541    -62231.69   -1557.3324   -1273.6423   -1626.4629    73.059508     63.27139     36.45041   -32929.408   -310553.66 
     170    794.27616     168319.6    73.034174    73.034175    36.437771          120     -23392.2   -21834.544   -91939.029   -902.48835   -2224.7039   -1695.5481    73.034174    63.249451    36.437771   -45721.924   -310588.94 
     180    724.20402    168144.41    73.008827    73.008828    36.425125          120    -21587.48   -19545.471   -110214.39   -995.06353   -2575.6946    -1915.006    73.008827      63.2275    36.425125   -50449.113   -310500.72 
     190    694.72873    167965.93    72.982986    72.982987    36.412233          120   -17558.244   -15710.182   -110894.56   -453.05008   -2442.5282   -1954.9381    72.982986    63.205121    36.412233    -48054.33   -310484.96 
     200    727.60035    167784.26    72.956664    72.956664      36.3991          120   -13203.906   -12892.183   -93764.524   -754.66459   -2223.7613   -1949.3757    72.956664    63.182325      36.3991   -39953.538   -310588.86 
     210    741.44035    167601.86    72.930217    72.930218    36.385905          120   -8604.6428   -8588.6886   -71851.038   -1109.1381   -1810.7178   -1977.4375    72.930217    63.159421    36.385905   -29681.456   -310657.32 
     220     723.6569    167422.08    72.904132    72.904132    36.372891          120    -6134.528   -4192.2178   -53698.044    -1051.786   -1201.6605   -2925.3435    72.904132    63.136831    36.372891   -21341.597   -310663.87 
     230    702.93594    167247.43    72.878771    72.878772    36.360238          120   -6082.4034   -4448.9851   -44659.339   -538.63546   -827.57634   -3554.8245    72.878771    63.114868    36.360238   -18396.909    -310662.7 
     240    698.97535    167078.36    72.854205    72.854206    36.347982          120   -8705.6116    -6228.682    -46416.57   -184.43476   -1846.9555   -3570.4043    72.854205    63.093593    36.347982   -20450.288   -310693.23 
     250    708.81169    166913.47    72.830232    72.830232    36.336021          120   -10746.413   -9446.6453   -58154.672    205.19923    -2030.358   -3469.6424    72.830232    63.072832    36.336021    -26115.91   -310751.37 
     260    713.70356    166750.24    72.806482    72.806483    36.324172          120   -12185.381   -12225.697    -72069.36    216.38311   -2056.9433   -4013.3832    72.806482    63.052264    36.324172   -32160.146    -310802.2 
     270    693.27358    166586.23    72.782605    72.782606     36.31226          120    -12004.71   -13058.396   -81863.815    228.45581   -1750.4694   -3297.4268    72.782605    63.031586     36.31226   -35642.307   -310805.01 
     280    670.11649    166420.28    72.758428    72.758429    36.300198          120   -11157.414   -10388.163   -83352.299    59.033257   -1358.7257    -2100.331    72.758428    63.010648    36.300198   -34965.959   -310799.89 
     290    671.10274    166252.97    72.734037    72.734038    36.288029          120   -7663.9654   -5574.0718    -75800.55    552.56187   -1105.9168   -2232.1622    72.734037    62.989525    36.288029   -29679.529   -310840.57 
     300    672.22104    166086.58    72.709766    72.709766    36.275919          120   -3048.7285   -925.49158   -64512.882    454.31833   -510.23537   -2214.8675    72.709766    62.968505    36.275919   -22829.034   -310880.55 
     310    662.61437    165923.92     72.68602    72.686021    36.264072          120    479.80199    1351.3497   -51943.369    411.91576   -49.355495   -2249.5137     72.68602    62.947941    36.264072   -16704.073   -310898.28 
     320    653.24314    165767.19    72.663128    72.663128    36.252651          120    1796.2558    1827.1248   -42838.381    450.86288   -869.18194   -1912.1201    72.663128    62.928115    36.252651   -13071.667   -310915.94 
     330    642.74337    165617.53    72.641254    72.641255    36.241738          120    1944.3371    1800.2727   -40213.183   -123.48834   -986.61389   -1500.7846    72.641254    62.909172    36.241738   -12156.191   -310930.25 
     340    645.20444    165474.86    72.620389    72.620389    36.231328          120    367.88591    1897.7537   -45393.363   -7.5503051   -1258.0556   -1805.7377    72.620389    62.891102    36.231328   -14375.908    -310969.5 
     350    639.25179    165337.91    72.600349     72.60035     36.22133          120   -75.006083    1280.7661   -54991.649    116.49943   -1145.1865   -2442.5639    72.600349    62.873748     36.22133    -17928.63   -310992.49 
     360    622.20178    165204.99    72.580889    72.580889    36.211621          120   -349.33948    1234.0241   -63300.653   -502.07912   -1064.5444   -2181.0642    72.580889    62.856894    36.211621   -20805.323   -310993.38 
     370    609.74886    165074.78    72.561814    72.561815    36.202104          120    841.92188    1586.8272   -66120.219   -316.24741   -2191.6056   -2924.2784    72.561814    62.840375    36.202104    -21230.49   -311002.14 
     380     608.5367    164947.02     72.54309     72.54309    36.192762          120    3344.8867    4395.7926   -61189.065   -625.15999   -2255.3313   -2881.3043     72.54309    62.824159    36.192762   -17816.129   -311031.67 
     390    607.06536    164822.69    72.524859     72.52486    36.183667          120    5713.9605    6991.8099   -54207.853   -953.34065   -1637.3783   -2379.4969    72.524859    62.808371    36.183667   -13834.028   -311059.35 
     400     598.2342    164703.09    72.507312    72.507313    36.174912          120    8425.8891    8879.3974   -45280.606   -866.51032   -1180.1075   -2138.7244    72.507312    62.793175    36.174912   -9325.1065   -311072.91 
     410     592.6621    164589.46    72.490634    72.490635    36.166591          120     9445.523    10866.728    -39094.56   -807.25851   -1201.5769   -2210.6145    72.490634    62.778731    36.166591   -6260.7697   -311092.26 
     420    588.52733    164482.44    72.474919     72.47492    36.158751          120    10001.961    11398.065   -36597.683   -545.52013   -984.22665   -1345.2082    72.474919    62.765122    36.158751   -5065.8858   -311113.54 
     430    580.41446    164381.89    72.460148    72.460149    36.151382          120    9751.5487    10569.542   -38359.953    -216.8023   -889.65181   -1098.0031    72.460148     62.75233    36.151382   -6012.9541   -311125.97 
     440    577.99102    164286.88    72.446185    72.446186    36.144415          120    9810.4005    9501.1431   -44178.759    77.056812   -612.23022   -718.80557    72.446185    62.740237    36.144415    -8289.072   -311150.45 
     450     569.1219     164196.1    72.432838    72.432839    36.137756          120    10075.229    9001.1971   -49228.174    310.39464   -547.54171   -486.45215    72.432838    62.728679    36.137756   -10050.583   -311161.16 
     460    557.91557     164108.5    72.419956    72.419956    36.131329          120    10955.272    10207.919   -51850.431    555.95523   -717.92793   -594.53059    72.419956    62.717522    36.131329    -10229.08    -311166.7 
     470    551.73659     164023.7     72.40748     72.40748    36.125105          120      12275.3    12078.425   -51150.535    357.24488   -413.14912   -762.56016     72.40748    62.706718    36.125105   -8932.2698   -311180.69 
     480    552.51621    163941.91    72.395442    72.395442    36.119099          120    14084.228    13143.321   -46488.535   -251.39058   -997.12548   -834.42796    72.395442    62.696292    36.119099   -6420.3288   -311207.24 
     490    540.70952    163863.74    72.383935    72.383935    36.113357          120    14615.635    14726.497   -39907.412   -208.08818   -1009.2126   -653.86024    72.383935    62.686327    36.113357     -3521.76   -311208.89 
     500    536.77705     163789.9     72.37306    72.373061    36.107932          120    15799.513    16310.684   -36634.635   -173.67168   -717.60287   -938.33415     72.37306    62.676909    36.107932   -1508.1461   -311225.92 
     510    538.55468    163720.77    72.362877    72.362877    36.102851          120    16097.406     16650.06   -34268.585   -330.65326    51.262235     78.81061    72.362877     62.66809    36.102851   -507.03969   -311253.53 
     520    534.75454    163656.32     72.35338    72.353381    36.098113          120    16191.233    16788.645   -34649.806   -626.97452    712.61673   -178.69814     72.35338    62.659866    36.098113   -556.64278   -311269.69 
     530    524.56732    163596.11    72.344506    72.344506    36.093686          120    15826.072    16789.673   -38228.042   -504.31276   -215.39809    54.375274    72.344506     62.65218    36.093686   -1870.7657   -311272.44 
     540    520.03338    163539.33    72.336134    72.336135    36.089509          120    15408.099     16633.98   -41561.958    63.067258   -1296.9717    342.39278    72.336134    62.644931    36.089509   -3173.2928   -311286.28 
     550    515.42247    163485.18     72.32815    72.328151    36.085526          120    14752.404    17140.326   -43345.229     -39.9241   -1275.9853   -117.28109     72.32815    62.638016    36.085526   -3817.4999   -311299.71 
     560    510.91297    163433.26    72.320492    72.320493    36.081705          120    16082.192     18218.89   -41940.279   -380.56391   -594.33459    259.44406    72.320492    62.631384    36.081705   -2546.3992   -311312.68 
     570    504.86277    163383.78    72.313194    72.313194    36.078064          120    17506.891    19114.458   -38815.902   -26.090477   -628.81374    998.77116    72.313194    62.625064    36.078064   -731.51748   -311322.48 
     580    504.45584    163337.24    72.306327    72.306328    36.074638          120    18892.142    20346.881   -35397.565    592.62248    587.54202    458.66897    72.306327    62.619117    36.074638    1280.4861   -311342.01 
     590    497.51085    163294.15    72.299968    72.299969    36.071465          120    19547.652    21380.338    -32381.71    421.89434    566.42013    25.046053    72.299968     62.61361    36.071465    2848.7598   -311349.19 
     600    490.95103    163254.76    72.294154    72.294154    36.068564          120    19113.867    21058.838   -32715.173    265.89465     844.9529   -320.50051    72.294154    62.608574    36.068564     2485.844   -311356.17 
     610    486.26114    163218.75    72.288838    72.288839    36.065913          120    20113.178    21068.398   -33922.785   -637.00927    2104.3764   -1055.9299    72.288838    62.603971    36.065913    2419.5969   -311365.72 
     620    483.00064    163185.81    72.283975    72.283975    36.063486          120    20810.733    20847.816   -36101.746   -737.35712     1306.114   -885.53074    72.283975    62.599759    36.063486    1852.2679   -311378.57 
     630    479.97401    163155.52    72.279503    72.279503    36.061255          120    20390.017    20687.596   -37314.246   -772.97648     1402.964    37.942173    72.279503    62.595886    36.061255    1254.4557   -311391.31 
     640    471.14678    163127.54     72.27537     72.27537    36.059193          120    21555.642    20930.911   -37372.887     -820.178     1026.756    1025.7794     72.27537    62.592307    36.059193    1704.5555   -311392.64 
     650    468.31219    163101.81     72.27157     72.27157    36.057297          120    21685.356    21998.553   -36760.869    68.577425   -323.68935    1413.8089     72.27157    62.589016    36.057297    2307.6799    -311404.5 
     660    471.01086    163078.44    72.268118    72.268119    36.055575          120    22448.921    22443.781   -34647.137    334.52989   -229.55221    1211.3576    72.268118    62.586027    36.055575    3415.1886   -311426.68 
     670    468.11255    163057.67     72.26505     72.26505    36.054044          120    22523.406    22487.535   -33193.799    167.88727    62.683925     1077.094     72.26505    62.583369    36.054044    3939.0473   -311437.68 
     680    455.76235    163039.54    72.262371    72.262372    36.052708          120    21542.835    22628.181   -32037.437   -50.296688    -69.55584    753.47769    72.262371     62.58105    36.052708    4044.5266   -311430.08 
     690     455.7128    163023.93    72.260065    72.260066    36.051557          120    21231.041    22683.379   -31527.497   -302.88858    797.20701    237.15884    72.260065    62.579053    36.051557    4128.9743   -311445.31 
     700    449.87846    163010.71    72.258112    72.258112    36.050583          120    21735.421    22001.049   -32226.494    442.29128    999.40665    361.66334    72.258112    62.577361    36.050583    3836.6588   -311449.37 
     710    449.11977    162999.62    72.256474    72.256474    36.049765          120    20602.335    21634.719   -33442.661    782.03417    723.67575   -516.67025    72.256474    62.575942    36.049765    2931.4644   -311463.08 
     720    446.66054    162990.22    72.255084    72.255085    36.049072          120    19605.689    21387.058   -34736.883    940.10577    941.54001   -455.53854    72.255084    62.574739    36.049072     2085.288   -311472.92 
     730    445.63095    162982.13    72.253889    72.253889    36.048476          120    19995.956    22117.183   -34712.939     1176.072    976.10235   -693.81588    72.253889    62.573704    36.048476    2466.7332   -311484.97 
     740    446.18641    162975.39    72.252892    72.252893    36.047979          120    20658.467    22200.252   -34217.721    457.95796    1032.9195   -1078.7626    72.252892    62.572841    36.047979    2880.3325   -311499.87 
     750    438.17461    162970.09     72.25211     72.25211    36.047588          120    21688.303    21967.017   -33184.971    266.37729    481.87769   -264.13306     72.25211    62.572163    36.047588    3490.1165   -311497.89 
     760    435.52512    162966.39    72.251563    72.251563    36.047315          120    22278.342     22104.17   -31930.076    393.08293    1169.2108    846.77296    72.251563     62.57169    36.047315     4150.812   -311506.01 
     770    434.74753    162964.44    72.251275    72.251275    36.047171          120    22916.847    22592.767   -31434.809    540.08283    1078.8448    599.69729    72.251275     62.57144    36.047171    4691.6015   -311517.19 
     780    434.21591    162964.37    72.251264    72.251264    36.047166          120    22628.612    23255.618   -30644.029    597.48596    466.57011    -82.23711    72.251264     62.57143    36.047166    5080.0668   -311529.06 
     790    426.99849    162966.17    72.251531    72.251531    36.047299          120    22088.878    22455.226   -31670.395      1531.83     1211.531   -339.37773    72.251531    62.571662    36.047299     4291.236   -311527.82 
     800    418.52103    162969.53    72.252027    72.252027    36.047547          120    22050.323    22473.055   -32908.672    1120.2941    1347.5931   -668.46661    72.252027    62.572091    36.047547    3871.5688   -311522.93 
     810    419.52207    162974.19    72.252715    72.252715     36.04789          120    22430.433    22322.341   -33998.167    853.42395    1088.1257   -772.79206    72.252715    62.572687     36.04789    3584.8688   -311535.65 
     820     419.0099    162980.02    72.253577    72.253577     36.04832          120    22703.157    22905.349   -33538.348    884.96141    1046.7149   -1052.3809    72.253577    62.573434     36.04832    4023.3858    -311545.6 
     830    412.60359     162987.1    72.254623    72.254624    36.048842          120    22497.582    23293.555   -33321.937    711.98432    1582.7208   -1066.0563    72.254623     62.57434    36.048842    4156.3998   -311543.82 
     840    414.73842    162995.42    72.255853    72.255854    36.049456          120    22676.612    23168.564     -33208.7    861.33462    1655.2556   -1008.1034    72.255853    62.575405    36.049456    4212.1586   -311557.75 
     850    414.08412    163004.98    72.257265    72.257266     36.05016          120    22038.601    23404.715   -32331.833    1440.2585    1283.6912   -954.78006    72.257265    62.576628     36.05016    4370.4944   -311566.15 
     860    412.07119    163015.75    72.258856    72.258857    36.050954          120    21529.571     22599.91   -32624.633    1595.5907    504.17181   -691.45972    72.258856    62.578006    36.050954    3834.9494   -311571.88 
     870    406.47333    163027.52    72.260595    72.260595    36.051822          120    20766.904    22677.361   -32081.476    1306.5331    602.38848   -2820.2877    72.260595    62.579511    36.051822    3787.5961   -311570.17 
     880    405.81461    163040.19    72.262467    72.262468    36.052756          120    20657.431     21972.98   -32837.417    802.90897    540.87547   -2445.9259    72.262467    62.581133    36.052756    3264.3314   -311577.48 
     890    403.79078    163053.55    72.264441    72.264442     36.05374          120     20448.87    21671.758   -34186.454   -283.23171     1076.686   -1315.3721    72.264441    62.582842     36.05374    2644.7249   -311582.14 
     900    398.35052    163067.36    72.266481    72.266482    36.054758          120    20469.857    21707.989   -34790.103    -177.9962     1453.315   -1047.4136    72.266481    62.584609    36.054758    2462.5807   -311579.14 
     910    398.34139    163081.52    72.268573    72.268574    36.055802          120    20552.309    22527.317   -35077.505     27.24278     1900.127   -733.15073    72.268573    62.586421    36.055802    2667.3737   -311586.72 
     920    400.12505     163096.1    72.270727    72.270727    36.056877          120    20456.189     23021.33   -34455.768    812.94313    1735.5987     -578.737    72.270727    62.588286    36.056877    3007.2504   -311596.77 
     930     397.4696    163111.19    72.272956    72.272956    36.057989          120    19955.371      23030.3   -34447.556    576.73882     1769.036   -794.98431    72.272956    62.590216    36.057989    2846.0382   -311598.29 
     940    394.12713    163126.77    72.275256    72.275256    36.059136          120    20394.227    22056.547   -32998.881    356.84597    2101.3685   -623.69487    72.275256    62.592208    36.059136    3150.6309   -311598.27 
     950    394.99819    163142.91     72.27764    72.277641    36.060326          120    21650.128    22304.335   -32922.646    614.21352    1368.5293    -809.5586     72.27764    62.594273    36.060326    3677.2723   -311605.87 
     960    392.71235    163159.79    72.280133    72.280133    36.061569          120    22058.994    22374.938    -32866.58    385.17268    1602.9583   -1232.3506    72.280133    62.596432    36.061569     3855.784    -311606.8 
     970    389.34369    163177.41    72.282734    72.282735    36.062867          120    20110.159      22155.1   -33391.465    426.87943    642.04331   -855.09228    72.282734    62.598685    36.062867    2957.9314   -311605.13 
     980    391.88686    163195.41    72.285392    72.285392    36.064193          120    19219.348    20995.238   -35625.069    117.27724     1682.858     -497.387    72.285392    62.600986    36.064193    1529.8387   -311613.93 
     990    393.14374     163213.3    72.288034    72.288034    36.065511          120    19018.522    20140.826   -35289.988     381.5183    1825.5916   -879.94909    72.288034    62.603274    36.065511    1289.7866   -311620.28 
    1000    387.93338    163230.97    72.290642    72.290643    36.066813          120    19133.624    20374.154   -35869.879    937.29282    2090.7834   -638.42709    72.290642    62.605533    36.066813    1212.6329   -311613.68 
Loop time of 396.171 on 1 procs for 1000 steps with 14848 atoms

Performance: 0.218 ns/day, 110.047 hours/ns, 2.524 timesteps/s
100.0% CPU use with 1 MPI tasks x no OpenMP threads

MPI task timing breakdown:
Section |  min time  |  avg time  |  max time  |%varavg| %total
---------------------------------------------------------------
Pair    | 310.44     | 310.44     | 310.44     |   0.0 | 78.36
Bond    | 0.00055027 | 0.00055027 | 0.00055027 |   0.0 |  0.00
Kspace  | 14.675     | 14.675     | 14.675     |   0.0 |  3.70
Neigh   | 61.907     | 61.907     | 61.907     |   0.0 | 15.63
Comm    | 0.57389    | 0.57389    | 0.57389    |   0.0 |  0.14
Output  | 0.013782   | 0.013782   | 0.013782   |   0.0 |  0.00
Modify  | 8.3728     | 8.3728     | 8.3728     |   0.0 |  2.11
Other   |            | 0.1833     |            |       |  0.05

Nlocal:    14848 ave 14848 max 14848 min
Histogram: 1 0 0 0 0 0 0 0 0 0
Nghost:    46859 ave 46859 max 46859 min
Histogram: 1 0 0 0 0 0 0 0 0 0
Neighs:    1.00833e+07 ave 1.00833e+07 max 1.00833e+07 min
Histogram: 1 0 0 0 0 0 0 0 0 0

Total # of neighbors = 10083294
Ave neighs/atom = 679.101
Ave special neighs/atom = 0
Neighbor list builds = 184
Dangerous builds = 0
PPPM initialization ...
  using 12-bit tables for long-range coulomb (../kspace.cpp:321)
  G vector (1/distance) = 0.202604
  grid = 36 50 24
  stencil order = 5
  estimated absolute RMS force accuracy = 0.000997675
  estimated relative force accuracy = 6.92847e-05
  using double precision FFTs
  3d grid and FFT values/proc = 65395 43200
Setting up Verlet run ...
  Unit style    : metal
  Current step  : 0
  Time step     : 0.001
Per MPI rank memory allocation (min/avg/max) = 151.5 | 151.5 | 151.5 Mbytes
Step Temp Volume Cella Cellb Cellc CellGamma Pxx Pyy Pzz Pxy Pxz Pyz Lx Ly Lz Press PotEng 
       0    387.93338    163230.97    72.290642    72.290643    36.066813          120    19145.425    20386.671   -35863.455     938.0552    2090.7512   -638.47253    72.290642    62.605533    36.066813    1222.8803   -311613.51 
  100000    403.75205    164396.22    72.462253    72.462254    36.152432          120    18383.254     19040.08   -39696.547    1288.7125    2319.2979   -280.71714    72.462253    62.754153    36.152432   -757.73762   -311719.06 
Loop time of 38091 on 1 procs for 100000 steps with 14848 atoms

Performance: 0.227 ns/day, 105.808 hours/ns, 2.625 timesteps/s
100.0% CPU use with 1 MPI tasks x no OpenMP threads

MPI task timing breakdown:
Section |  min time  |  avg time  |  max time  |%varavg| %total
---------------------------------------------------------------
Pair    | 30534      | 30534      | 30534      |   0.0 | 80.16
Bond    | 0.056741   | 0.056741   | 0.056741   |   0.0 |  0.00
Kspace  | 1485.2     | 1485.2     | 1485.2     |   0.0 |  3.90
Neigh   | 5155.1     | 5155.1     | 5155.1     |   0.0 | 13.53
Comm    | 53.704     | 53.704     | 53.704     |   0.0 |  0.14
Output  | 0.00012898 | 0.00012898 | 0.00012898 |   0.0 |  0.00
Modify  | 844.73     | 844.73     | 844.73     |   0.0 |  2.22
Other   |            | 17.77      |            |       |  0.05

Nlocal:    14848 ave 14848 max 14848 min
Histogram: 1 0 0 0 0 0 0 0 0 0
Nghost:    46652 ave 46652 max 46652 min
Histogram: 1 0 0 0 0 0 0 0 0 0
Neighs:    1.00102e+07 ave 1.00102e+07 max 1.00102e+07 min
Histogram: 1 0 0 0 0 0 0 0 0 0

Total # of neighbors = 10010182
Ave neighs/atom = 674.177
Ave special neighs/atom = 0
Neighbor list builds = 15225
Dangerous builds = 0
 
All done!
Total wall time: 10:41:28
