LAMMPS (16 Mar 2018)
Reading data file ...
  triclinic box = (0 0 0) to (9.208 7.97436 18.376) with tilt (-4.604 0 0)
  1 by 1 by 1 MPI processor grid
  reading atoms ...
  116 atoms
Finding 1-2 1-3 1-4 neighbors ...
  special bond factors lj:   0          0          0         
  special bond factors coul: 0          0          0         
  0 = max # of 1-2 neighbors
  0 = max # of 1-3 neighbors
  0 = max # of 1-4 neighbors
  1 = max # of special neighbors
Replicating atoms ...
  triclinic box = (0 0 0) to (73.664 63.7949 36.752) with tilt (-36.832 0 0)
  1 by 1 by 1 MPI processor grid
  14848 atoms
Finding 1-2 1-3 1-4 neighbors ...
  special bond factors lj:   0          0          0         
  special bond factors coul: 0          0          0         
  0 = max # of 1-2 neighbors
  0 = max # of 1-3 neighbors
  0 = max # of 1-4 neighbors
  1 = max # of special neighbors
  Time spent = 0.00354791 secs
PPPM initialization ...
WARNING: System is not charge neutral, net charge = -0.2048 (../kspace.cpp:302)
  using 12-bit tables for long-range coulomb (../kspace.cpp:321)
  G vector (1/distance) = 0.201681
  grid = 36 50 24
  stencil order = 5
  estimated absolute RMS force accuracy = 0.00105653
  estimated relative force accuracy = 7.33721e-05
  using double precision FFTs
  3d grid and FFT values/proc = 65395 43200
Neighbor list info ...
  update every 1 steps, delay 0 steps, check yes
  max neighbors/atom: 2000, page size: 100000
  master list distance cutoff = 15.3
  ghost atom cutoff = 15.3
  binsize = 7.65, bins = 15 9 5
  3 neighbor lists, perpetual/occasional/extra = 3 0 0
  (1) pair morse, perpetual
      attributes: half, newton on
      pair build: half/bin/newton/tri
      stencil: half/bin/3d/newton/tri
      bin: standard
  (2) pair buck, perpetual, copy from (1)
      attributes: half, newton on
      pair build: copy
      stencil: none
      bin: none
  (3) pair lj/cut/coul/long, perpetual, copy from (1)
      attributes: half, newton on
      pair build: copy
      stencil: none
      bin: none
Setting up Verlet run ...
  Unit style    : metal
  Current step  : 0
  Time step     : 0.001
Per MPI rank memory allocation (min/avg/max) = 145.7 | 145.7 | 145.7 Mbytes
Step Temp Volume Cella Cellb Cellc CellGamma Pxx Pyy Pzz Pxy Pxz Pyz Lx Ly Lz Press PotEng 
       0          600    172711.88       73.664    73.664001       36.752          120   -204340.88   -204445.37      -275416     48.54281   -15.257356    20.406001       73.664    63.794896       36.752   -228067.42   -309191.56 
      10    501.28606    172678.99    73.659324    73.659325    36.749667          120   -201529.77    -201611.4   -248207.43     144.2888   -37.975438   -244.55611    73.659324    63.790846    36.749667    -217116.2   -309020.85 
      20    795.32321     172583.3    73.645715    73.645716    36.742877          120   -191996.16   -191824.68   -186223.83    70.059673   -277.62762   -539.80036    73.645715    63.779061    36.742877   -190014.89   -309602.22 
      30    856.64638    172433.35     73.62438    73.624381    36.732233          120   -154084.38   -154023.74   -106874.18   -167.55826   -853.66072   -552.18679     73.62438    63.760584    36.732233   -138327.44   -309744.23 
      40    631.97256    172244.78    73.597531    73.597532    36.718838          120   -103469.85   -104041.28   -27199.941   -1111.3616   -1167.1306   -534.45628    73.597531    63.737333    36.718838   -78237.025   -309328.63 
      50     735.9538    172035.32    73.567687    73.567688    36.703948          120   -70758.195   -71893.202    -6417.156   -523.70662   -919.69092   -653.24201    73.567687    63.711487    36.703948   -49689.518    -309533.4 
      60     989.8611    171814.92    73.536256    73.536257    36.688267          120   -59337.175   -58947.149   -52493.833   -1079.4818   -1821.1347   -637.68844    73.536256    63.684267    36.688267   -56926.053   -310031.42 
      70    1125.4333    171584.31    73.503343    73.503343    36.671846          120   -53192.315    -53602.57    -116149.2   -1975.3739   -2447.5796   -861.19562    73.503343    63.655763    36.671846   -74314.696   -310324.35 
      80    1001.4576    171341.31    73.468627    73.468628    36.654526          120    -50707.24   -52680.677   -160265.04   -2016.9355   -2366.5564   -99.731422    73.468627    63.625698    36.654526   -87884.318   -310126.04 
      90    767.30613    171085.21    73.432004    73.432004    36.636254          120   -47709.229   -48247.759   -171893.54   -2044.7939   -2849.3313   -1294.3181    73.432004    63.593981    36.636254    -89283.51   -309709.69 
     100    788.76369     170819.3    73.393941    73.393942    36.617264          120    -31355.16   -31386.991   -150514.04   -1892.6109   -2599.6217   -1542.3886    73.393941    63.561018    36.617264   -71085.399   -309779.75 
     110    943.98361    170551.93    73.355628    73.355629    36.598149          120   -11570.915   -12215.791   -110860.65   -1960.6539   -886.68438   -2028.5807    73.355628    63.527838    36.598149   -44882.452   -310110.78 
     120    967.50392    170292.98    73.318484    73.318484    36.579617          120   -1036.3924   -1341.0149   -65246.182    -1853.491   -424.92492   -1838.6855    73.318484     63.49567    36.579617   -22541.196   -310192.04 
     130    880.64456     170050.1    73.283611    73.283612    36.562219          120   -858.58876    17.089776   -29248.599   -1515.8402    -922.1716   -1956.9367    73.283611     63.46547    36.562219   -10030.033   -310058.35 
     140    833.95553    169826.94    73.251539     73.25154    36.546217          120   -4965.8832   -5031.9116   -15478.495   -815.25579   -918.33456    -2125.648    73.251539    63.437694    36.546217   -8492.0967   -309996.01 
     150    866.22476    169622.99    73.222204    73.222204    36.531582          120   -12047.645   -11201.995   -33077.087   -1891.0359   -506.98696   -1782.2674    73.222204    63.412289    36.531582   -18775.576   -310085.84 
     160    928.88394    169434.18    73.195026    73.195027    36.518022          120   -20498.206   -20003.652   -64302.525   -1493.5641   -1300.7944   -2508.6206    73.195026    63.388753    36.518022   -34934.794   -310239.96 
     170    931.88755    169255.01    73.169216    73.169217    36.505145          120   -24858.795   -23997.909    -93198.21   -1155.6688   -1784.1278    -2427.565    73.169216    63.366401    36.505145   -47351.638   -310284.19 
     180    864.79868    169081.07    73.144143    73.144144    36.492636          120   -23472.609   -21972.466   -111930.89   -1252.7668   -2234.9825   -2378.1785    73.144143    63.344687    36.492636   -52458.656   -310193.08 
     190     834.1791     168910.1    73.119481    73.119482    36.480332          120   -19882.101   -18093.645   -113407.65   -888.96291   -2836.6036   -2342.1675    73.119481    63.323329    36.480332   -50461.134   -310169.22 
     200    861.18431    168741.83    73.095192    73.095192    36.468214          120   -15707.317   -15472.112   -98141.963   -1413.9775   -2156.1793   -2059.6268    73.095192    63.302293    36.468214    -43107.13   -310255.26 
     210    885.18389     168577.3    73.071427    73.071428    36.456357          120   -11166.279   -11580.396    -77137.76   -1552.8317   -1943.6784   -1773.2325    73.071427    63.281713    36.456357   -33294.812   -310335.81 
     220    867.50838    168418.08    73.048415    73.048415    36.444876          120   -8805.2511   -7091.2903   -59497.793   -1790.2822   -1152.3126   -2861.5079    73.048415    63.261784    36.444876   -25131.445   -310336.06 
     230    850.39291    168265.12    73.026293    73.026294    36.433839          120    -9145.859   -7791.1392   -50925.172   -1247.5972   -515.02121   -3670.5603    73.026293    63.242626    36.433839   -22620.723   -310334.55 
     240    843.08053    168117.99    73.005003    73.005003    36.423217          120   -11241.513   -9711.4487   -50727.345   -799.13465   -1605.3968   -4603.4545    73.005003    63.224188    36.423217   -23893.435   -310352.71 
     250    857.34808    167975.27    72.984339     72.98434    36.412908          120   -14200.205    -12730.43   -61293.615   -412.93513   -1994.5641   -3812.0276    72.984339    63.206292    36.412908   -29408.083   -310413.25 
     260    865.44334    167834.79    72.963987    72.963987    36.402753          120   -15785.908   -15460.157   -73760.953   -833.80861   -1721.0377   -4040.5039    72.963987    63.188667    36.402753   -35002.339   -310463.96 
     270    845.75765    167694.48    72.943648    72.943649    36.392606          120   -15976.005   -16947.986   -84625.055    -161.7777    -1584.001   -3417.0761    72.943648    63.171053    36.392606   -39183.016   -310461.24 
     280    825.84114     167552.9    72.923114    72.923115    36.382362          120   -16111.854   -15682.664   -88298.271   -403.89661   -1647.0917   -2290.6034    72.923114     63.15327    36.382362    -40030.93   -310457.45 
     290    824.92628    167409.68    72.902332    72.902332    36.371993          120   -12621.511   -10494.834   -83536.746    44.075184   -1310.7516   -3007.8498    72.902332    63.135272    36.371993   -35551.031    -310488.6 
     300    826.13539    167265.83    72.881444    72.881444    36.361572          120   -8646.8148   -6067.9585   -72922.854   -50.413269    -1694.875   -3067.6106    72.881444    63.117182    36.361572   -29212.543   -310523.44 
     310    819.51786    167122.86    72.860674    72.860674    36.351209          120   -5810.8689   -3410.8481   -60888.585   -365.27007   -631.67949   -2423.3029    72.860674    63.099195    36.351209   -23370.101   -310542.34 
     320    810.58943    166982.14    72.840218    72.840218    36.341004          120    -4232.298   -3220.4209    -52121.41    415.53341   -208.10723   -2042.8721    72.840218     63.08148    36.341004   -19858.043   -310556.23 
     330    803.58939     166844.4    72.820184    72.820185    36.331008          120   -4066.6427   -3526.3101   -47874.986    678.58334   -127.50551   -3179.6184    72.820184     63.06413    36.331008   -18489.313   -310572.97 
     340    801.74911    166709.77    72.800592    72.800592    36.321233          120   -6045.1478   -3770.0498   -51330.002    987.21908    67.520295   -3402.6303    72.800592    63.047162    36.321233   -20381.733   -310599.49 
     350    801.58322    166577.57    72.781343    72.781344     36.31163          120   -7938.9988   -4569.9521   -60443.633    1149.2032   -304.20963    -2887.975    72.781343    63.030493     36.31163   -24317.528   -310629.85 
     360    790.99898    166446.73    72.762282    72.762283     36.30212          120   -7572.2837   -3702.5909   -68863.881    268.01484   -767.08275   -3033.4835    72.762282    63.013986     36.30212   -26712.919   -310639.44 
     370    778.56359     166316.6    72.743316    72.743316    36.292658          120    -5325.303   -2165.6282   -71542.652   -642.73371   -2028.6988   -3228.0366    72.743316     62.99756    36.292658   -26344.528    -310644.7 
     380    777.82097    166187.28    72.724457    72.724457    36.283249          120   -2683.7902   -830.28702     -67285.2   -822.17551    -2463.113   -3593.5383    72.724457    62.981228    36.283249   -23599.759   -310672.59 
     390     774.6624    166059.47    72.705808    72.705809    36.273945          120   -53.205928    2354.3523   -60910.584   -1224.8568   -2640.3534   -3477.5785    72.705808    62.965078    36.273945   -19536.479   -310694.66 
     400    765.89677    165934.17    72.687518    72.687518    36.264819          120    3235.9545    4466.5494    -53313.76   -698.43632      -2220.7   -3490.0104    72.687518    62.949238    36.264819   -15203.752   -310705.53 
     410    769.39435    165812.41    72.669734    72.669734    36.255947          120    5018.0805    5268.1169   -46603.637    211.87965    -1609.797   -3311.5751    72.669734    62.933836    36.255947   -12105.813   -310739.73 
     420    763.33234    165694.81    72.652551    72.652551    36.247374          120    4185.3538    6491.9862   -43081.754    537.90684   -767.54066    -3135.382    72.652551    62.918955    36.247374   -10801.471   -310755.17 
     430    750.13526    165581.53     72.63599     72.63599    36.239111          120    4995.9475    6316.7034   -44580.465     211.4282   -484.24501   -3731.1424     72.63599    62.904613    36.239111   -11089.271   -310755.58 
     440    750.19494    165472.23    72.620004    72.620004    36.231136          120    4288.6195    5476.8636   -49408.165     788.1364   -614.54101   -3055.9244    72.620004    62.890769    36.231136   -13214.227   -310782.33 
     450    743.74063    165366.17    72.604486    72.604487    36.223394          120     3421.672    4535.4743   -54582.991   -95.897765    -111.0715   -3058.1086    72.604486     62.87733    36.223394   -15541.948   -310796.03 
     460    734.28965    165262.68    72.589336    72.589336    36.215835          120     5960.395    5817.7448   -56316.834    219.90258   -268.11068   -3052.4392    72.589336     62.86421    36.215835   -14846.231    -310802.7 
     470    731.69705    165161.68    72.574546    72.574546    36.208456          120     7700.634    7545.8811   -55823.492    389.88835   -986.67209   -3224.6013    72.574546    62.851401    36.208456   -13525.659   -310822.18 
     480    725.46661    165063.41    72.560149    72.560149    36.201273          120    9778.4052    9304.1113   -53333.304     16.16038   -591.19849   -3099.0854    72.560149    62.838933    36.201273   -11416.929   -310834.34 
     490    718.56876    164968.22    72.546199    72.546199    36.194313          120    10183.017    10143.528   -47638.839    376.21382   -300.72321   -2618.5467    72.546199    62.826852    36.194313   -9104.0983   -310844.81 
     500    713.56121     164876.5    72.532751    72.532751    36.187604          120    9674.8492    10383.736    -42888.04    15.184549    1067.2225   -2720.6759    72.532751    62.815205    36.187604   -7609.8182   -310856.92 
     510    714.24632    164788.38    72.519826    72.519827    36.181156          120    10259.334    10502.167   -41396.735   -32.947383    154.50279   -1926.3434    72.519826    62.804013    36.181156   -6878.4112   -310881.34 
     520    708.99381    164703.83    72.507422    72.507422    36.174967          120    11034.407    11054.817   -41329.673    428.91552   -112.15379    -2559.954    72.507422     62.79327    36.174967   -6413.4832   -310893.82 
     530    706.79984    164622.75    72.495522    72.495522     36.16903          120    11624.946    13589.415     -42710.5    830.67691    141.48145   -2774.0509    72.495522    62.782964     36.16903   -5832.0462   -310911.26 
     540    704.22166    164545.01    72.484109    72.484109    36.163336          120    12812.592    14369.592   -44377.305    1106.6271   -682.42921   -2591.4697    72.484109     62.77308    36.163336   -5731.7074   -310927.49 
     550     695.7172    164470.41    72.473153    72.473154     36.15787          120    12870.321    15304.524   -45912.211    961.98431   -94.982024    -2437.465    72.473153    62.763592     36.15787   -5912.4552   -310932.23 
     560    690.23472    164398.74    72.462625    72.462625    36.152617          120    14008.024    15991.022   -45116.612    893.27972    567.94391   -2386.5217    72.462625    62.754474    36.152617   -5039.1888   -310941.99 
     570     685.5917       164330    72.452523    72.452524    36.147577          120    15047.156     17454.51   -43003.208    1230.3212    483.42134    -2842.609    72.452523    62.745726    36.147577   -3500.5142   -310953.62 
     580    687.17242    164264.34    72.442872    72.442873    36.142762          120     16128.25    17676.473    -39626.35     1403.473   -441.57784   -2672.5037    72.442872    62.737368    36.142762   -1940.5422   -310976.69 
     590    677.93492    164201.95    72.433699    72.433699    36.138186          120    16722.688    18346.635   -36916.213    1044.6085   -1203.6313   -1823.5312    72.433699    62.729424    36.138186   -615.62983    -310977.7 
     600    671.38705    164142.92    72.425019    72.425019    36.133855          120    16946.116    19567.525    -35800.41    269.58532   -942.27098   -2204.1981    72.425019    62.721907    36.133855    237.74355   -310984.31 
     610    662.54091    164087.26    72.416831    72.416832     36.12977          120    17402.085    20173.594   -35018.485    610.83945   -414.58695   -1060.9141    72.416831    62.714816     36.12977      852.398   -310985.63 
     620    672.64101    164034.83    72.409117    72.409118    36.125921          120    16990.463    19395.311   -38208.147    311.87142   -188.36092   -441.68515    72.409117    62.708136    36.125921    -607.4575   -311022.23 
     630    665.56915    163985.15    72.401807    72.401807    36.122274          120    17323.055    20149.238   -39945.494   -34.819103   -1136.7786    -1610.271    72.401807    62.701805    36.122274   -824.40053    -311026.3 
     640    662.28366    163937.97    72.394862    72.394862    36.118809          120    18328.558    19557.605   -39422.082    275.38147   -411.64447   -2023.9072    72.394862     62.69579    36.118809   -511.97282   -311037.63 
     650    654.02578    163893.15    72.388264    72.388265    36.115518          120    18268.426    19772.791   -40115.629    913.84962    -914.6399   -2462.0549    72.388264    62.690077    36.115518   -691.47086   -311038.69 
     660     653.3706    163850.55    72.381991    72.381992    36.112388          120     17498.68     21246.76   -39185.061     1252.107   -768.41018   -2013.0507    72.381991    62.684644    36.112388   -146.54045    -311053.4 
     670    648.10024    163810.15    72.376042    72.376042     36.10942          120    18075.337    21287.415   -36455.771    1895.7779   -572.33299   -1731.5859    72.376042    62.679491     36.10942    968.99387   -311059.77 
     680    645.03422    163772.04    72.370429    72.370429    36.106619          120    17189.003    21237.532   -35490.808    1717.5117   -1275.0545   -2226.3924    72.370429     62.67463    36.106619    978.57567   -311069.57 
     690    643.67033    163736.12    72.365138    72.365138     36.10398          120    17664.038    20196.329   -34375.456    1333.9141   -510.86134    -2577.549    72.365138    62.670048     36.10398    1161.6371   -311081.76 
     700    637.46339    163702.29    72.360153    72.360154    36.101493          120    18667.352    19636.775   -34033.141    1442.8433   -430.93152   -1742.6599    72.360153    62.665732    36.101493    1423.6618   -311085.25 
     710    638.56405    163670.49    72.355467    72.355468    36.099155          120    20327.785    20734.132    -34589.21      1422.05   -970.51343   -1741.8947    72.355467    62.661673    36.099155    2157.5688   -311102.41 
     720    631.26672    163640.73    72.351082    72.351082    36.096967          120     19511.15    20801.267   -35473.338    687.02353   -302.79761   -1176.2472    72.351082    62.657876    36.096967    1613.0263   -311102.61 
     730    628.90564    163612.84    72.346972    72.346973    36.094916          120    18973.454    21627.699   -35231.675    1148.4468    889.67403   -625.85354    72.346972    62.654316    36.094916    1789.8256   -311111.19 
     740    627.18528    163586.73    72.343123    72.343123    36.092996          120     19539.96    22173.069   -36012.006    1421.4293    1145.2787   -2331.7202    72.343123    62.650983    36.092996    1900.3411   -311120.34 
     750    624.56757    163562.31    72.339523    72.339524      36.0912          120    18911.535    22087.864   -35596.098    1266.2199    1066.5071   -2320.5016    72.339523    62.647865      36.0912    1801.1002   -311127.94 
     760    618.46406    163539.47    72.336155    72.336156     36.08952          120    20311.665    20731.932   -35840.789    1303.9483    1063.4103   -2193.2866    72.336155    62.644949     36.08952    1734.2692   -311128.77 
     770    619.01716    163518.14    72.333011    72.333011    36.087951          120    21438.295    20929.341   -33911.057    1229.1508    1415.8645   -1929.9922    72.333011    62.642225    36.087951      2818.86   -311141.75 
     780    616.56596    163498.48    72.330111    72.330111    36.086504          120    21842.924    22065.313    -32712.74    953.15389    1435.5489   -1564.4074    72.330111    62.639714    36.086504    3731.8324   -311148.43 
     790    614.98821    163480.66    72.327483    72.327483    36.085193          120    21699.301    23908.809   -30896.664     233.0476    256.23931   -1935.3638    72.327483    62.637438    36.085193    4903.8154   -311156.62 
     800    610.91352    163464.86    72.325154    72.325154    36.084031          120    21532.583    23873.142   -30465.872    198.81878   -194.88562   -1645.2798    72.325154    62.635421    36.084031    4979.9508   -311159.02 
     810    608.57339    163450.98    72.323107    72.323107     36.08301          120    20558.903    23424.796   -32609.668   -637.72734   -601.89339   -1519.6836    72.323107    62.633648     36.08301    3791.3436    -311165.1 
     820    609.82554    163438.66     72.32129     72.32129    36.082103          120     20508.05    22469.787    -35081.82   -512.01476   -1038.5466   -792.70585     72.32129    62.632075    36.082103    2632.0055   -311177.49 
     830     600.5377    163427.55    72.319651    72.319651    36.081285          120     22384.34    21084.653   -36662.061    27.166334   -1184.8396   -1220.1274    72.319651    62.630656    36.081285    2268.9772    -311168.7 
     840    603.96153    163417.49    72.318166    72.318167    36.080545          120    22148.974    21199.599   -36043.561     480.7868   -988.12613   -1533.4096    72.318166     62.62937    36.080545     2435.004   -311184.69 
     850    594.73525    163408.49    72.316839    72.316839    36.079882          120    21977.239    23048.461   -34201.732    57.642911   -854.60317    -721.4982    72.316839     62.62822    36.079882    3607.9897   -311175.94 
     860    595.60103    163400.76    72.315699      72.3157    36.079314          120    21778.208    24155.831   -33404.147   -340.71399   -348.17302   -1666.0859    72.315699    62.627233    36.079314    4176.6304   -311185.51 
     870    597.76097    163394.42    72.314763    72.314764    36.078847          120    21776.505    24794.186   -32263.128    252.46242    -500.8321   -2904.7788    72.314763    62.626423    36.078847    4769.1879   -311197.11 
     880    598.59501    163389.51    72.314039     72.31404    36.078486          120     21456.51     23665.81    -32042.34    747.86354   -945.94369   -2467.4468    72.314039    62.625796    36.078486    4359.9938   -311205.71 
     890    593.20473    163385.91    72.313507    72.313508     36.07822          120    21796.557     22049.68   -32198.577    2118.8034   -719.67311    -1357.224    72.313507    62.625335     36.07822    3882.5532   -311201.87 
     900    594.60379    163383.43    72.313142    72.313142    36.078038          120    22634.363    21415.804    -33729.96    1266.9317   -276.98672   -1103.3651    72.313142    62.625018    36.078038    3440.0688   -311211.13 
     910    588.08662    163381.94    72.312922    72.312922    36.077928          120    21261.827    22435.831    -33645.26    1011.5796    517.00419   -950.99089    72.312922    62.624828    36.077928    3350.7994   -311204.19 
     920    591.26298    163381.36    72.312836    72.312837    36.077885          120    20720.653     22904.06   -34223.531    1136.8625    489.67913   -1251.7181    72.312836    62.624754    36.077885    3133.7274   -311215.91 
     930    585.54618     163381.6    72.312872    72.312873    36.077903          120    21378.912    22812.714   -34834.961    1486.2151   -547.74158   -2020.7836    72.312872    62.624785    36.077903    3118.8885   -311209.21 
     940    581.75833    163382.63    72.313023    72.313024    36.077979          120    20930.079    22981.148   -34869.664    1479.9424   -849.73684    -1845.441    72.313023    62.624916    36.077979    3013.8543   -311206.57 
     950     585.1091    163384.39    72.313283    72.313283    36.078108          120    21106.069    22432.924   -33949.765    1506.2641    548.89793   -1860.4578    72.313283    62.625141    36.078108    3196.4093   -311216.49 
     960    589.24286    163386.92    72.313657    72.313657    36.078295          120    22453.252    23075.408   -31706.399    1946.6703      910.865   -2150.2576    72.313657    62.625464    36.078295    4607.4207   -311227.66 
     970    584.63747    163390.57    72.314195    72.314196    36.078564          120    24984.815    25997.556   -29870.842    1228.7608    1028.0901   -1994.1314    72.314195    62.625931    36.078564    7037.1764   -311221.82 
     980    585.69443    163395.82     72.31497     72.31497     36.07895          120    24604.484    25559.945   -29758.436    29.484752    1221.5095   -1819.3231     72.31497    62.626602     36.07895    6801.9976   -311226.03 
     990    587.52756     163402.6     72.31597    72.315971    36.079449          120    22415.298    25032.567   -30684.908    388.42112    705.72397   -944.75475     72.31597    62.627468    36.079449    5587.6523   -311230.66 
    1000    587.17722     163410.6     72.31715    72.317151    36.080038          120    22457.164    25221.953   -31381.563   -217.05137    546.80812   -770.98625     72.31715     62.62849    36.080038    5432.5179   -311230.68 
Loop time of 403.892 on 1 procs for 1000 steps with 14848 atoms

Performance: 0.214 ns/day, 112.192 hours/ns, 2.476 timesteps/s
100.0% CPU use with 1 MPI tasks x no OpenMP threads

MPI task timing breakdown:
Section |  min time  |  avg time  |  max time  |%varavg| %total
---------------------------------------------------------------
Pair    | 309.81     | 309.81     | 309.81     |   0.0 | 76.71
Bond    | 0.0005362  | 0.0005362  | 0.0005362  |   0.0 |  0.00
Kspace  | 14.628     | 14.628     | 14.628     |   0.0 |  3.62
Neigh   | 70.301     | 70.301     | 70.301     |   0.0 | 17.41
Comm    | 0.57854    | 0.57854    | 0.57854    |   0.0 |  0.14
Output  | 0.013713   | 0.013713   | 0.013713   |   0.0 |  0.00
Modify  | 8.3769     | 8.3769     | 8.3769     |   0.0 |  2.07
Other   |            | 0.1799     |            |       |  0.04

Nlocal:    14848 ave 14848 max 14848 min
Histogram: 1 0 0 0 0 0 0 0 0 0
Nghost:    46771 ave 46771 max 46771 min
Histogram: 1 0 0 0 0 0 0 0 0 0
Neighs:    1.00712e+07 ave 1.00712e+07 max 1.00712e+07 min
Histogram: 1 0 0 0 0 0 0 0 0 0

Total # of neighbors = 10071234
Ave neighs/atom = 678.289
Ave special neighs/atom = 0
Neighbor list builds = 208
Dangerous builds = 0
PPPM initialization ...
  using 12-bit tables for long-range coulomb (../kspace.cpp:321)
  G vector (1/distance) = 0.202586
  grid = 36 50 24
  stencil order = 5
  estimated absolute RMS force accuracy = 0.000998787
  estimated relative force accuracy = 6.93619e-05
  using double precision FFTs
  3d grid and FFT values/proc = 65395 43200
Setting up Verlet run ...
  Unit style    : metal
  Current step  : 0
  Time step     : 0.001
Per MPI rank memory allocation (min/avg/max) = 151.5 | 151.5 | 151.5 Mbytes
Step Temp Volume Cella Cellb Cellc CellGamma Pxx Pyy Pzz Pxy Pxz Pyz Lx Ly Lz Press PotEng 
       0    587.17722     163410.6     72.31715    72.317151    36.080038          120    22468.393    25233.712   -31376.091   -216.79674    546.76464   -771.06431     72.31715     62.62849    36.080038    5442.0047   -311230.52 
  100000    598.98482    165190.26    72.578731    72.578732    36.210544          120    20931.357    19820.449   -41944.759   -1189.3463    -1826.271    665.84344    72.578731    62.855026    36.210544   -397.65102   -311386.33 
Loop time of 39033.3 on 1 procs for 100000 steps with 14848 atoms

Performance: 0.221 ns/day, 108.426 hours/ns, 2.562 timesteps/s
100.0% CPU use with 1 MPI tasks x no OpenMP threads

MPI task timing breakdown:
Section |  min time  |  avg time  |  max time  |%varavg| %total
---------------------------------------------------------------
Pair    | 30355      | 30355      | 30355      |   0.0 | 77.77
Bond    | 0.057311   | 0.057311   | 0.057311   |   0.0 |  0.00
Kspace  | 1470.7     | 1470.7     | 1470.7     |   0.0 |  3.77
Neigh   | 6297.7     | 6297.7     | 6297.7     |   0.0 | 16.13
Comm    | 55.75      | 55.75      | 55.75      |   0.0 |  0.14
Output  | 0.00012803 | 0.00012803 | 0.00012803 |   0.0 |  0.00
Modify  | 836.94     | 836.94     | 836.94     |   0.0 |  2.14
Other   |            | 17.38      |            |       |  0.04

Nlocal:    14848 ave 14848 max 14848 min
Histogram: 1 0 0 0 0 0 0 0 0 0
Nghost:    46555 ave 46555 max 46555 min
Histogram: 1 0 0 0 0 0 0 0 0 0
Neighs:    9.96187e+06 ave 9.96187e+06 max 9.96187e+06 min
Histogram: 1 0 0 0 0 0 0 0 0 0

Total # of neighbors = 9961866
Ave neighs/atom = 670.923
Ave special neighs/atom = 0
Neighbor list builds = 18706
Dangerous builds = 0
 
All done!
Total wall time: 10:57:18
