LAMMPS (16 Mar 2018)
Reading data file ...
  triclinic box = (0 0 0) to (9.208 7.97436 18.376) with tilt (-4.604 0 0)
  1 by 1 by 1 MPI processor grid
  reading atoms ...
  116 atoms
Finding 1-2 1-3 1-4 neighbors ...
  special bond factors lj:   0          0          0         
  special bond factors coul: 0          0          0         
  0 = max # of 1-2 neighbors
  0 = max # of 1-3 neighbors
  0 = max # of 1-4 neighbors
  1 = max # of special neighbors
Replicating atoms ...
  triclinic box = (0 0 0) to (73.664 63.7949 36.752) with tilt (-36.832 0 0)
  1 by 1 by 1 MPI processor grid
  14848 atoms
Finding 1-2 1-3 1-4 neighbors ...
  special bond factors lj:   0          0          0         
  special bond factors coul: 0          0          0         
  0 = max # of 1-2 neighbors
  0 = max # of 1-3 neighbors
  0 = max # of 1-4 neighbors
  1 = max # of special neighbors
  Time spent = 0.00384879 secs
PPPM initialization ...
WARNING: System is not charge neutral, net charge = -0.2048 (../kspace.cpp:302)
  using 12-bit tables for long-range coulomb (../kspace.cpp:321)
  G vector (1/distance) = 0.201681
  grid = 36 50 24
  stencil order = 5
  estimated absolute RMS force accuracy = 0.00105653
  estimated relative force accuracy = 7.33721e-05
  using double precision FFTs
  3d grid and FFT values/proc = 65395 43200
Neighbor list info ...
  update every 1 steps, delay 0 steps, check yes
  max neighbors/atom: 2000, page size: 100000
  master list distance cutoff = 15.3
  ghost atom cutoff = 15.3
  binsize = 7.65, bins = 15 9 5
  3 neighbor lists, perpetual/occasional/extra = 3 0 0
  (1) pair morse, perpetual
      attributes: half, newton on
      pair build: half/bin/newton/tri
      stencil: half/bin/3d/newton/tri
      bin: standard
  (2) pair buck, perpetual, copy from (1)
      attributes: half, newton on
      pair build: copy
      stencil: none
      bin: none
  (3) pair lj/cut/coul/long, perpetual, copy from (1)
      attributes: half, newton on
      pair build: copy
      stencil: none
      bin: none
Setting up Verlet run ...
  Unit style    : metal
  Current step  : 0
  Time step     : 0.001
Per MPI rank memory allocation (min/avg/max) = 145.7 | 145.7 | 145.7 Mbytes
Step Temp Volume Cella Cellb Cellc CellGamma Pxx Pyy Pzz Pxy Pxz Pyz Lx Ly Lz Press PotEng 
       0         1000    172711.88       73.664    73.664001       36.752          120   -199547.97   -199727.26   -270684.68    80.038268   -25.426023    34.011095       73.664    63.794896       36.752   -223319.97   -309191.56 
      10    687.52038    172692.68    73.661271    73.661271    36.750638          120   -190983.41   -191042.55   -237015.88    155.10007   -44.368283   -324.92676    73.661271    63.792532    36.750638   -206347.28   -308601.91 
      20    1002.3954     172637.6    73.653438    73.653439     36.74673          120    -174806.8   -175057.73   -172793.78    153.97867   -179.05668   -666.54138    73.653438    63.785749     36.74673   -174219.43   -309212.34 
      30    1095.5005    172552.57    73.641343    73.641344    36.740696          120    -129525.9    -129815.3   -93812.127   -172.32578    -847.4477   -612.25015    73.641343    63.775275    36.740696   -117717.77   -309392.26 
      40     870.4528    172447.35    73.626372    73.626373    36.733227          120   -80277.324   -81148.656    -17555.79   -1560.5982   -1074.8411   -505.94268    73.626372     63.76231    36.733227    -59660.59   -308951.95 
      50    993.75594    172331.64    73.609901    73.609902    36.725009          120   -56517.141   -57844.026   -7911.6976   -386.14368    -457.8803   -725.14921    73.609901    63.748045    36.725009   -40757.621   -309177.47 
      60    1208.6678    172209.13    73.592453    73.592454    36.716304          120   -52467.422   -51899.183   -56862.138   -1389.6303    -1587.631   -879.20579    73.592453    63.732935    36.716304   -53742.914   -309582.28 
      70    1322.1916    172078.37    73.573823    73.573824    36.707009          120   -49963.129   -51225.031   -118301.15   -2040.1938   -2247.1393   -818.26212    73.573823    63.716801    36.707009   -73163.102   -309807.77 
      80    1206.4624    171936.66    73.553621    73.553622     36.69693          120   -50798.786   -53298.812   -159184.25   -2116.4693    -1964.113   -449.50801    73.553621    63.699305     36.69693   -87760.616   -309606.37 
      90    996.77506    171782.24    73.531595    73.531595    36.685941          120   -49152.681    -49150.19   -168107.73    -1720.074   -2543.9016   -2137.7654    73.531595     63.68023    36.685941   -88803.534      -309222 
     100    1031.7717    171615.93    73.507856    73.507857    36.674098          120   -32990.645   -32106.456   -147372.72   -1538.6355   -2225.3007   -1864.1667    73.507856    63.659672    36.674098   -70823.275   -309303.79 
     110    1169.1936    171441.61    73.482959     73.48296    36.661676          120   -14866.968   -14557.455   -111330.99   -2123.3503    -320.4574   -2195.6345    73.482959     63.63811    36.661676   -46918.471   -309582.28 
     120    1193.4997    171264.32    73.457621    73.457622    36.649035          120   -4888.2906   -4756.4147   -69290.135   -1903.2076    455.84234   -1851.7239    73.457621    63.616167    36.649035   -26311.613   -309647.19 
     130    1129.9936     171088.5    73.432475    73.432476    36.636489          120   -4593.4248   -2909.4642    -35732.46   -1300.2477   -629.76944   -1705.4585    73.432475     63.59439    36.636489   -14411.783   -309544.74 
     140    1087.4319    170916.97    73.407927    73.407927    36.624241          120   -7800.1146   -7057.9347   -22978.676   -886.14526   -736.92764   -2786.1166    73.407927     63.57313    36.624241   -12612.242   -309479.45 
     150    1107.8533     170750.6      73.3841    73.384101    36.612354          120   -14984.867   -13778.624   -38620.483   -1794.6522   -888.36974   -1883.7616      73.3841    63.552496    36.612354   -22461.324   -309534.95 
     160    1169.4288    170588.32    73.360845    73.360845    36.600752          120   -22862.519   -20850.104   -67261.859   -2067.0406   -990.70912   -2947.2199    73.360845    63.532356    36.600752   -36991.494   -309672.91 
     170    1182.8535    170428.26    73.337893    73.337894    36.589301          120   -25476.376   -24949.947   -94815.886    -1917.446   -1827.1558   -3302.4433    73.337893    63.512479    36.589301    -48414.07   -309721.79 
     180    1127.2158    170269.08    73.315054    73.315054    36.577906          120    -23258.42   -22417.101   -112281.57   -708.44293   -1629.0793   -3153.2561    73.315054      63.4927    36.577906   -52652.363   -309639.66 
     190    1102.5695    170110.55    73.292294    73.292294     36.56655          120   -21041.215   -17915.778   -114027.49    -852.6302   -3264.9496    -2363.159    73.292294    63.472989     36.56655   -50994.827   -309616.09 
     200     1108.757    169953.44    73.269723    73.269724     36.55529          120   -16457.099   -15810.365   -99504.861   -1526.7641   -2372.2651   -2244.1385    73.269723    63.453442     36.55529   -43924.108   -309648.77 
     210     1148.785    169799.18    73.247548    73.247549    36.544226          120   -13095.128   -13238.983   -82144.365   -1407.3033   -1588.0465   -2637.0729    73.247548    63.434238    36.544226   -36159.492   -309748.31 
     220    1133.8884    169649.22    73.225978    73.225979    36.533465          120   -10248.079   -8891.2025    -66207.15   -2435.4357   -1587.4178    -3390.779    73.225978    63.415558    36.533465    -28448.81   -309740.81 
     230    1122.1404    169504.67    73.205176    73.205176    36.523086          120   -11216.819   -9657.6466   -58176.497   -1890.5767     -1150.74   -5675.6095    73.205176    63.397542    36.523086   -26350.321   -309738.53 
     240    1117.3646    169365.75    73.185171    73.185172    36.513106          120   -12933.517   -10564.081   -55604.268    -1447.739   -1845.6247   -5904.9522    73.185171    63.380218    36.513106   -26367.288   -309749.87 
     250    1128.5817    169232.07     73.16591    73.165911    36.503496          120   -15017.837   -14178.601   -63004.514   -67.479843   -672.91129   -5073.8803     73.16591    63.363538    36.503496   -30733.651   -309792.24 
     260    1136.3212    169102.61    73.147249    73.147249    36.494186          120   -17177.768   -14852.269    -74263.09   -115.68604   -1612.9566   -4957.6504    73.147249    63.347376    36.494186   -35431.042    -309830.4 
     270     1133.347    168976.27    73.129028    73.129028    36.485095          120   -18290.719   -15650.415     -83008.2    895.84036   -2011.3392   -3742.0957    73.129028    63.331596    36.485095   -38983.111   -309847.68 
     280    1116.5883    168852.16     73.11112    73.111121     36.47616          120    -18726.14    -17042.36   -88220.652    1023.9241   -755.00085   -2556.8531     73.11112    63.316088     36.47616   -41329.717   -309839.29 
     290    1111.4069    168729.67    73.093436    73.093437    36.467338          120   -16596.254   -15435.872   -86935.776    404.67154   -778.55776   -3015.5222    73.093436    63.300773    36.467338   -39655.967   -309851.79 
     300    1114.9162    168608.76    73.075973    73.075974    36.458625          120   -12201.379   -12069.152    -79651.63   -755.47457   -1076.6747   -3233.7245    73.075973     63.28565    36.458625    -34640.72      -309880 
     310    1116.6828    168489.91    73.058799      73.0588    36.450057          120   -10067.398   -10209.025   -70561.342   -1047.4465   -1553.2529   -3692.2472    73.058799    63.270777    36.450057   -30279.255    -309904.1 
     320    1107.5795    168373.51    73.041971    73.041972    36.441661          120    -8648.539   -7848.8805   -61751.021    524.82056    -1338.763    -4037.228    73.041971    63.256203    36.441661   -26082.813   -309907.47 
     330    1101.5508    168259.86    73.025533    73.025534     36.43346          120   -7576.0299   -6048.2541   -55264.665    1194.1984   -1714.3811     -4015.79    73.025533    63.241968     36.43346   -22962.983   -309916.14 
     340     1104.493    168149.04    73.009497    73.009497    36.425459          120   -6293.8123   -6146.2601   -56328.576    491.84437    -2089.233   -3944.6532    73.009497     63.22808    36.425459   -22922.883   -309941.03 
     350    1111.4857     168040.7    72.993813    72.993814    36.417634          120   -6146.0852    -5818.985   -62447.898    480.56524   -387.23422   -3420.3782    72.993813    63.214497    36.417634   -24804.323    -309974.8 
     360    1102.7716     167934.2     72.97839    72.978391     36.40994          120    -7726.624   -6914.5592   -70805.496    1037.5088   -272.57652   -3951.7618     72.97839     63.20114     36.40994   -28482.226    -309979.1 
     370    1089.7362    167828.75    72.963112    72.963113    36.402317          120   -5722.2708   -8132.1803   -75652.158    778.91674   -2023.9582   -3361.4279    72.963112    63.187909    36.402317   -29835.536   -309974.54 
     380    1093.8203    167723.89    72.947913    72.947914    36.394734          120   -5666.9409   -5847.6792   -75775.494   -324.13605   -1704.8323   -3573.1112    72.947913    63.174747    36.394734   -29096.705   -310001.97 
     390    1076.9845    167619.55    72.932783    72.932784    36.387186          120   -5705.7104   -3726.5816   -71504.988   -430.02005   -892.35436    -3307.719    72.932783    63.161644    36.387186   -26979.093   -309988.92 
     400    1079.9677     167515.9    72.917747    72.917747    36.379684          120   -3319.0567   -2392.6615   -65217.602  -0.44235784    55.878997   -4368.2556    72.917747    63.148622    36.379684   -23643.107   -310013.59 
     410    1087.3559    167413.32     72.90286     72.90286    36.372257          120   -1300.2778    576.28382   -58336.929    841.28709    402.53328   -3865.8705     72.90286    63.135729    36.372257   -19686.974   -310046.18 
     420    1082.8098    167312.26    72.888187    72.888187    36.364936          120   -135.16153    1623.2075    -52435.24    1200.9614    379.06992   -3296.3101    72.888187    63.123022    36.364936   -16982.398    -310056.3 
     430    1068.4041    167212.99    72.873769    72.873769    36.357743          120   -74.463113     2978.069   -50573.038    1594.9391   -443.96188   -2598.3521    72.873769    63.110536    36.357743   -15889.811    -310046.6 
     440    1078.3836    167115.52    72.859607    72.859608    36.350677          120   -1999.4806     3342.079   -52113.505    -606.0539   -322.91731   -3499.3587    72.859607    63.098271    36.350677   -16923.636   -310084.06 
     450    1072.5762    167019.54    72.845656    72.845656    36.343717          120   -1524.1041    898.82611   -57942.174   -1703.6058    56.883596   -3501.3266    72.845656    63.086189    36.343717   -19522.484   -310090.22 
     460    1074.2035    166924.59    72.831849    72.831849    36.336828          120   -942.21674    1349.7704   -60036.007   -939.13211   -151.51567   -2469.1737    72.831849    63.074232    36.336828   -19876.151   -310111.61 
     470    1063.1916    166830.49    72.818161    72.818161    36.329999          120    174.38642    4294.1198   -60829.423   -145.08783   -43.760169   -2438.1833    72.818161    63.062378    36.329999   -18786.972   -310108.83 
     480    1054.3332    166737.35    72.804606    72.804607    36.323236          120    2135.3251    6135.8868    -58741.34   -723.55961   -121.21398   -3336.3067    72.804606    63.050639    36.323236   -16823.376   -310108.91 
     490    1055.6637    166645.38    72.791219    72.791219    36.316557          120     3688.895    6679.6746   -54146.513    95.348099   -1019.9771   -4858.3655    72.791219    63.039045    36.316557   -14592.648   -310127.31 
     500    1050.5555     166554.9    72.778042    72.778042    36.309983          120    4911.8307    8989.3069   -50770.364    74.627997   -478.64071    -3739.265    72.778042    63.027633    36.309983   -12289.742   -310134.03 
     510    1048.5523    166466.16    72.765114    72.765114    36.303533          120    4837.5835    8844.0238   -48113.803   -241.64625   -957.45269   -3112.8428    72.765114    63.016438    36.303533   -11477.399   -310145.67 
     520    1048.8028    166379.22    72.752444    72.752444    36.297212          120    4807.4498    8607.6222   -47773.178    350.88306   -971.95497   -2246.3268    72.752444    63.005465    36.297212   -11452.702   -310161.82 
     530    1051.1359       166294    72.740021    72.740022    36.291014          120    5293.4352    7793.1196    -49367.13   -431.31156   -1236.0949   -1899.6807    72.740021    62.994707    36.291014   -12093.525   -310181.68 
     540    1045.7822    166210.34    72.727821    72.727821    36.284927          120    5165.1075    8256.3106   -51675.522   -1908.6111   -2267.6075   -2665.1759    72.727821    62.984141    36.284927   -12751.368   -310186.32 
     550    1047.0605    166128.09    72.715822    72.715822    36.278941          120    7035.9053    8731.5991   -52393.279   -1412.8454   -1976.1489   -3053.2261    72.715822    62.973749    36.278941   -12208.591   -310203.82 
     560    1037.5954    166047.23    72.704022    72.704022    36.273053          120    6838.0674    9618.6211   -52794.335    305.64648   -1089.5243   -3861.6719    72.704022     62.96353    36.273053   -12112.549   -310200.84 
     570    1031.1629    165967.76    72.692422    72.692422    36.267266          120    8872.4118      11614.3    -51115.34    596.80289    -1493.407   -2825.1296    72.692422    62.953484    36.267266   -10209.543   -310202.47 
     580     1036.491    165889.88    72.681049     72.68105    36.261592          120    8148.7417    13630.275   -48556.317    1112.0178   -1035.8371   -1900.0828    72.681049    62.943636    36.261592   -8925.7666   -310226.46 
     590    1032.0032    165813.74    72.669929    72.669929    36.256044          120     10116.63    14118.285   -47734.336    1048.3454   -98.572166   -2030.3871    72.669929    62.934005    36.256044   -7833.1405   -310230.68 
     600    1032.2513    165739.45    72.659074    72.659075    36.250628          120    10179.468    14047.771   -44830.236    281.57621    236.74012   -2907.8256    72.659074    62.924605    36.250628   -6867.6657   -310244.74 
     610    1027.0011    165667.09    72.648498    72.648499    36.245352          120     10986.96    14573.259   -42695.994    278.48967    835.53392   -4318.6395    72.648498    62.915446    36.245352    -5711.925   -310248.52 
     620    1040.9956    165596.73    72.638213    72.638213     36.24022          120    11270.358    13970.646   -43460.954    965.99521    1389.5157    -4842.706    72.638213    62.906538     36.24022   -6073.3168   -310288.62 
     630    1024.8167    165528.29    72.628203    72.628204    36.235227          120    12357.998    14149.582   -43693.854    -38.99656    1288.1465   -4326.7816    72.628203     62.89787    36.235227   -5728.7581   -310270.19 
     640    1019.3527    165461.71    72.618465    72.618465    36.230368          120    12759.092    15894.776    -43393.32   -1166.4284    1360.6727   -3693.0855    72.618465    62.889436    36.230368   -4913.1508   -310271.52 
     650    1022.5402    165397.03    72.609001    72.609001    36.225646          120    12886.156    15833.963   -43533.433   -365.92327   -34.255725    -4396.835    72.609001     62.88124    36.225646   -4937.7712   -310289.73 
     660    1012.4761    165334.17    72.599802    72.599802    36.221057          120     13363.56    16453.758   -44833.214   -53.531467   -641.03855   -4412.6449    72.599802    62.873273    36.221057   -5005.2985    -310281.8 
     670    1018.1948    165273.06    72.590856    72.590857    36.216593          120    13734.335    16363.214   -43019.035    607.16912   -642.38696   -4631.4896    72.590856    62.865526    36.216593   -4307.1618   -310304.45 
     680    1021.2046     165213.7    72.582164    72.582164    36.212257          120    14081.998    16621.398   -41497.922    1798.5172   -1124.7673   -3309.0063    72.582164    62.857998    36.212257   -3598.1755   -310322.27 
     690    1008.1537    165156.15    72.573736    72.573737    36.208052          120    15331.308    18237.667   -38385.775    1008.8349   -1871.9605    -2760.252    72.573736      62.8507    36.208052      -1605.6   -310308.12 
     700    1001.0445    165100.62    72.565601    72.565602    36.203993          120    16476.572    18214.498   -36229.531    235.85423   -2297.3488   -2383.0696    72.565601    62.843655    36.203993   -512.82027   -310304.73 
     710     1025.178    165047.19    72.557772    72.557772    36.200087          120     16940.34    18355.878   -36480.963    250.36189   -1107.3422   -2985.8185    72.557772    62.836874    36.200087   -394.91473   -310360.44 
     720    1003.2456    164995.79    72.550239     72.55024    36.196329          120    16370.464    19204.625   -37833.673    931.66487   -371.60107   -2667.5598    72.550239    62.830351    36.196329   -752.86116   -310328.02 
     730    1009.3687    164946.27     72.54298     72.54298    36.192707          120    15048.679    18941.952   -38350.483    1368.3578    1010.6121   -3143.3364     72.54298    62.824064    36.192707    -1453.284   -310348.79 
     740    1005.5621    164898.46    72.535971    72.535971     36.18921          120    16709.339    20559.592   -38713.886    1293.5893    1492.9282    -3622.013    72.535971    62.817994     36.18921   -481.65177   -310350.84 
     750    1004.3755    164852.41    72.529219    72.529219    36.185842          120    18494.146     21005.82   -37633.407    632.77533    1288.6439   -3333.6429    72.529219    62.812146    36.185842    622.18651   -310357.13 
     760    996.47327    164808.25     72.52274    72.522741     36.18261          120    20180.449    21747.675    -36053.86    636.85214    367.94734   -3899.0053     72.52274    62.806536     36.18261     1958.088   -310350.33 
     770    1000.3738    164766.04    72.516549     72.51655    36.179521          120    21113.728    21239.514   -35064.716    554.41976    420.86892   -3455.6095    72.516549    62.801174    36.179521    2429.5083   -310365.53 
     780    998.28159    164725.81    72.510647    72.510648    36.176576          120    21609.173    23007.296   -33892.217    578.65596   -437.56076    -2180.986    72.510647    62.796063    36.176576    3574.7507   -310369.22 
     790    991.58666    164687.64    72.505046    72.505047    36.173782          120    22330.404    23352.185   -32837.499    3.2451597   -475.66259   -1311.3237    72.505046    62.791212    36.173782    4281.6967   -310363.59 
     800    1003.9034    164651.55    72.499749     72.49975    36.171139          120    20930.465    24600.563   -32385.585    1632.2719    66.207775    -1238.306    72.499749    62.786625    36.171139    4381.8144    -310394.6 
     810    1001.4132    164617.46    72.494746    72.494746    36.168643          120    20218.307     25254.87   -34631.472    2073.4135   -341.99823   -1451.5511    72.494746    62.782292    36.168643    3613.9015   -310396.51 
     820    990.65749    164585.21    72.490011    72.490012    36.166281          120    21102.457    25481.461   -34510.704    1487.4829   -223.26016   -1159.3709    72.490011    62.778192    36.166281    4024.4045   -310382.12 
     830    1006.0032    164554.72    72.485533    72.485534    36.164047          120    19435.429    24233.882   -35422.582    1549.4145    329.12383   -2522.4028    72.485533    62.774314    36.164047    2748.9097   -310418.12 
     840    993.70003    164525.78    72.481285    72.481285    36.161927          120    20308.191    23109.576   -34817.386     1215.411   -396.77875   -2891.3768    72.481285    62.770634    36.161927    2866.7938   -310400.25 
     850     996.3539    164498.34    72.477254    72.477255    36.159916          120    21019.171    23265.261   -33757.766    1942.7727    -519.6404   -3581.3535    72.477254    62.767144    36.159916    3508.8887   -310409.98 
     860    988.37948    164472.39    72.473444    72.473444    36.158015          120     21209.43    25612.176   -33184.386    1952.4537     205.8185   -3510.6008    72.473444    62.763844    36.158015    4545.7402   -310399.65 
     870    993.15718    164448.03    72.469866    72.469866     36.15623          120    20779.071    25900.514   -31555.577    2191.9493    453.83732   -2139.0792    72.469866    62.760745     36.15623    5041.3357   -310414.31 
     880    984.35685    164425.29    72.466525    72.466526    36.154563          120    20533.039    25596.534   -30430.752    1193.8237   -230.33273   -2684.0064    72.466525    62.757852    36.154563    5232.9404   -310401.95 
     890    988.09652    164404.14    72.463417    72.463418    36.153012          120    21495.136    24630.625   -32154.799    1201.6239   -709.82042   -2143.7478    72.463417    62.755161    36.153012    4656.9874    -310412.4 
     900    993.84109    164384.43    72.460522    72.460522    36.151568          120    21430.541     25301.13   -33792.419    1134.2661   -500.74037    -677.1407    72.460522    62.752653    36.151568    4313.0842   -310427.18 
     910    988.97044    164366.05    72.457821    72.457822     36.15022          120    20249.485    25824.986   -33422.961    1095.5545   -286.13189    -1686.547    72.457821    62.750314     36.15022      4217.17   -310420.83 
     920    995.59043    164348.95    72.455308    72.455309    36.148967          120    19922.672     26513.55   -31397.623    950.58609   -1371.2798   -1648.6265    72.455308    62.748138    36.148967    5012.8666   -310435.91 
     930     994.5605    164333.17    72.452988    72.452989    36.147809          120    20717.007     25428.15   -33094.037    1152.2801   -108.46939    -1329.502    72.452988    62.746129    36.147809    4350.3733   -310436.79 
     940    977.56166    164318.58    72.450844    72.450844    36.146739          120    20789.578    25628.777   -34142.737    2288.8197    1606.6374   -552.25475    72.450844    62.744272    36.146739     4091.873   -310406.37 
     950    989.75441    164305.06    72.448857    72.448858    36.145748          120     20043.29    24768.807   -35008.912    2553.2977    1880.7128    -1932.494    72.448857    62.742551    36.145748    3267.7283   -310431.89 
     960    986.79553    164292.51    72.447013    72.447014    36.144828          120    21031.808    25435.283   -34198.044    2151.9579    1244.0004   -3244.4051    72.447013    62.740955    36.144828    4089.6823   -310427.47 
     970     982.7692    164281.01    72.445322    72.445322    36.143984          120    22816.185    26454.623   -34365.389    2035.3871    259.33817    -3485.278    72.445322     62.73949    36.143984    4968.4727   -310419.55 
     980    986.97398    164270.62    72.443795    72.443796    36.143223          120    22181.355    26927.026    -34153.66    1840.7385   -1625.2913   -2665.5525    72.443795    62.738167    36.143223     4984.907    -310428.3 
     990    993.88928    164261.32    72.442428    72.442428    36.142541          120    21229.013     26472.58   -35153.702    2659.7819   -1212.4286   -1997.5215    72.442428    62.736984    36.142541    4182.6303   -310441.15 
    1000    993.44529    164252.98    72.441202    72.441203    36.141929          120    20953.541    25444.997   -33977.288    2939.6799   -1116.5547   -2883.3307    72.441202    62.735922    36.141929    4140.4167    -310438.6 
Loop time of 417.603 on 1 procs for 1000 steps with 14848 atoms

Performance: 0.207 ns/day, 116.001 hours/ns, 2.395 timesteps/s
100.0% CPU use with 1 MPI tasks x no OpenMP threads

MPI task timing breakdown:
Section |  min time  |  avg time  |  max time  |%varavg| %total
---------------------------------------------------------------
Pair    | 309.98     | 309.98     | 309.98     |   0.0 | 74.23
Bond    | 0.00054789 | 0.00054789 | 0.00054789 |   0.0 |  0.00
Kspace  | 14.564     | 14.564     | 14.564     |   0.0 |  3.49
Neigh   | 83.876     | 83.876     | 83.876     |   0.0 | 20.09
Comm    | 0.62758    | 0.62758    | 0.62758    |   0.0 |  0.15
Output  | 0.013725   | 0.013725   | 0.013725   |   0.0 |  0.00
Modify  | 8.3543     | 8.3543     | 8.3543     |   0.0 |  2.00
Other   |            | 0.1833     |            |       |  0.04

Nlocal:    14848 ave 14848 max 14848 min
Histogram: 1 0 0 0 0 0 0 0 0 0
Nghost:    46672 ave 46672 max 46672 min
Histogram: 1 0 0 0 0 0 0 0 0 0
Neighs:    1.00189e+07 ave 1.00189e+07 max 1.00189e+07 min
Histogram: 1 0 0 0 0 0 0 0 0 0

Total # of neighbors = 10018924
Ave neighs/atom = 674.766
Ave special neighs/atom = 0
Neighbor list builds = 249
Dangerous builds = 0
PPPM initialization ...
  using 12-bit tables for long-range coulomb (../kspace.cpp:321)
  G vector (1/distance) = 0.202503
  grid = 36 50 24
  stencil order = 5
  estimated absolute RMS force accuracy = 0.001004
  estimated relative force accuracy = 6.97241e-05
  using double precision FFTs
  3d grid and FFT values/proc = 65395 43200
Setting up Verlet run ...
  Unit style    : metal
  Current step  : 0
  Time step     : 0.001
Per MPI rank memory allocation (min/avg/max) = 150.3 | 150.3 | 150.3 Mbytes
Step Temp Volume Cella Cellb Cellc CellGamma Pxx Pyy Pzz Pxy Pxz Pyz Lx Ly Lz Press PotEng 
       0    993.44529    164252.98    72.441202    72.441203    36.141929          120    20963.282      25454.9   -33973.516     2939.938   -1116.7184   -2883.3658    72.441202    62.735922    36.141929    4148.2219   -310438.47 
  100000     990.9125    166641.12    72.790598    72.790599    36.316248          120    17110.629    16571.264   -39477.947    504.32224   -2377.8436    98.379843    72.790598    63.038508    36.316248   -1932.0179   -310582.29 
Loop time of 40668.9 on 1 procs for 100000 steps with 14848 atoms

Performance: 0.212 ns/day, 112.969 hours/ns, 2.459 timesteps/s
100.0% CPU use with 1 MPI tasks x no OpenMP threads

MPI task timing breakdown:
Section |  min time  |  avg time  |  max time  |%varavg| %total
---------------------------------------------------------------
Pair    | 30122      | 30122      | 30122      |   0.0 | 74.07
Bond    | 0.055497   | 0.055497   | 0.055497   |   0.0 |  0.00
Kspace  | 1470.9     | 1470.9     | 1470.9     |   0.0 |  3.62
Neigh   | 8162.5     | 8162.5     | 8162.5     |   0.0 | 20.07
Comm    | 61.624     | 61.624     | 61.624     |   0.0 |  0.15
Output  | 0.00012803 | 0.00012803 | 0.00012803 |   0.0 |  0.00
Modify  | 834.05     | 834.05     | 834.05     |   0.0 |  2.05
Other   |            | 18.05      |            |       |  0.04

Nlocal:    14848 ave 14848 max 14848 min
Histogram: 1 0 0 0 0 0 0 0 0 0
Nghost:    46422 ave 46422 max 46422 min
Histogram: 1 0 0 0 0 0 0 0 0 0
Neighs:    9.87584e+06 ave 9.87584e+06 max 9.87584e+06 min
Histogram: 1 0 0 0 0 0 0 0 0 0

Total # of neighbors = 9875836
Ave neighs/atom = 665.129
Ave special neighs/atom = 0
Neighbor list builds = 24246
Dangerous builds = 0
 
All done!
Total wall time: 11:24:48
