LAMMPS (16 Mar 2018)
Reading data file ...
  triclinic box = (0 0 0) to (9.208 7.97436 18.376) with tilt (-4.604 0 0)
  1 by 1 by 1 MPI processor grid
  reading atoms ...
  116 atoms
Finding 1-2 1-3 1-4 neighbors ...
  special bond factors lj:   0          0          0         
  special bond factors coul: 0          0          0         
  0 = max # of 1-2 neighbors
  0 = max # of 1-3 neighbors
  0 = max # of 1-4 neighbors
  1 = max # of special neighbors
Replicating atoms ...
  triclinic box = (0 0 0) to (73.664 63.7949 36.752) with tilt (-36.832 0 0)
  1 by 1 by 1 MPI processor grid
  14848 atoms
Finding 1-2 1-3 1-4 neighbors ...
  special bond factors lj:   0          0          0         
  special bond factors coul: 0          0          0         
  0 = max # of 1-2 neighbors
  0 = max # of 1-3 neighbors
  0 = max # of 1-4 neighbors
  1 = max # of special neighbors
  Time spent = 0.00485206 secs
PPPM initialization ...
WARNING: System is not charge neutral, net charge = -0.2048 (../kspace.cpp:302)
  using 12-bit tables for long-range coulomb (../kspace.cpp:321)
  G vector (1/distance) = 0.201681
  grid = 36 50 24
  stencil order = 5
  estimated absolute RMS force accuracy = 0.00105653
  estimated relative force accuracy = 7.33721e-05
  using double precision FFTs
  3d grid and FFT values/proc = 65395 43200
Neighbor list info ...
  update every 1 steps, delay 0 steps, check yes
  max neighbors/atom: 2000, page size: 100000
  master list distance cutoff = 15.3
  ghost atom cutoff = 15.3
  binsize = 7.65, bins = 15 9 5
  3 neighbor lists, perpetual/occasional/extra = 3 0 0
  (1) pair morse, perpetual
      attributes: half, newton on
      pair build: half/bin/newton/tri
      stencil: half/bin/3d/newton/tri
      bin: standard
  (2) pair buck, perpetual, copy from (1)
      attributes: half, newton on
      pair build: copy
      stencil: none
      bin: none
  (3) pair lj/cut/coul/long, perpetual, copy from (1)
      attributes: half, newton on
      pair build: copy
      stencil: none
      bin: none
Setting up Verlet run ...
  Unit style    : metal
  Current step  : 0
  Time step     : 0.001
Per MPI rank memory allocation (min/avg/max) = 145.7 | 145.7 | 145.7 Mbytes
Step Temp Volume Cella Cellb Cellc CellGamma Pxx Pyy Pzz Pxy Pxz Pyz Lx Ly Lz Press PotEng 
       0          100    172711.88       73.664    73.664001       36.752          120   -203139.45   -203150.45   -274690.89    9.1738133   -2.5465215    3.3996334       73.664    63.794896       36.752    -226993.6   -308813.33 
      10    266.76833    172514.29    73.635897    73.635898    36.737979          120   -207459.69   -207542.86   -254232.32    75.627774   -3.9226984   -107.38889    73.635897    63.770558    36.737979   -223078.29   -309191.91 
      20    510.01847    171938.29    73.553854    73.553854    36.697046          120   -207440.29   -207150.07   -193074.99     15.59041   -154.06539   -227.74054    73.553854    63.699507    36.697046   -202555.12   -309760.14 
      30    451.43392    171074.97    73.430539     73.43054    36.635523          120   -186994.23   -186528.53   -109266.95   -184.85894   -566.80486   -286.16898    73.430539    63.592713    36.635523    -160929.9   -309783.66 
      40    214.22867    170122.04    73.293943    73.293944    36.567374          120   -154599.33   -154373.14   -31363.221   -382.06926   -977.15755   -348.66344    73.293943    63.474418    36.567374   -113445.23   -309432.84 
      50    284.27732    169274.59    73.172038    73.172038    36.506553          120   -117620.74   -117584.48    2619.6162   -442.47894   -1093.1102   -516.13936    73.172038    63.368844    36.506553   -77528.534   -309623.37 
      60     608.5636     168592.8    73.073667    73.073667    36.457474          120   -84788.252   -84640.786   -31830.406   -544.31812   -2013.7931   -412.84402    73.073667    63.283652    36.457474   -67086.481   -310301.76 
      70    800.51846    168024.55    72.991476    72.991476    36.416468          120   -55214.901   -54764.846    -94176.77   -991.03075   -2490.9785   -273.98814    72.991476    63.212473    36.416468   -68052.172   -310771.56 
      80    648.12167    167506.45    72.916375    72.916376       36.379          120     -31431.3   -31516.382   -133878.83   -1518.1405   -2922.5953    128.61977    72.916375    63.147434       36.379   -65608.839   -310577.97 
      90    383.62328    167006.72    72.843791    72.843792    36.342786          120   -19081.151   -19427.858   -143913.62   -1709.6829   -3513.5849    373.43106    72.843791    63.084575    36.342786   -60807.544   -310140.06 
     100    431.55946    166520.05    72.772966    72.772966    36.307451          120   -2815.7506    -2399.047   -121457.44   -1552.2821   -3342.4524    83.083584    72.772966    63.023238    36.307451   -42224.079   -310284.47 
     110     594.2729    166067.99    72.707052    72.707052    36.274565          120    14771.826    15315.042   -78019.196   -1532.6439   -2996.3252   -69.434784    72.707052    62.966154    36.274565   -15977.443   -310664.31 
     120    555.18543    165681.01    72.650533    72.650534    36.246367          120    22399.542    22931.079   -27008.169   -1574.1632   -2956.9284   -501.85203    72.650533    62.917208    36.246367    6107.4839   -310662.96 
     130    441.05044    165376.87    72.606052    72.606052    36.224175          120    17912.394    18988.303    12013.927   -1650.9821   -3185.6338   -677.58757    72.606052    62.878686    36.224175    16304.874   -310501.62 
     140    421.34959    165152.65    72.573224    72.573224    36.207796          120    11946.278    12645.658    20330.922   -1522.0432   -3166.0207   -642.86637    72.573224    62.850256    36.207796    14974.286   -310508.99 
     150    494.00252    164989.04     72.54925    72.549251    36.195836          120    5575.5444    6699.9795   -9443.5099   -1634.7589   -2740.7614    -247.6447     72.54925    62.829494    36.195836    944.00467   -310701.29 
     160    534.65583    164853.96    72.529445    72.529445    36.185955          120   -4112.2231   -1980.6116   -50172.129   -1585.0853   -2842.1298   -17.502661    72.529445    62.812342    36.185955   -18754.988   -310845.99 
     170    477.18209    164714.47    72.508982    72.508983    36.175745          120    -8575.188   -5828.3264    -78192.23   -991.12616   -3099.5414   -248.05494    72.508982    62.794621    36.175745   -30865.248   -310803.84 
     180    400.00441    164553.33     72.48533    72.485331    36.163945          120   -3829.1291   -976.79409   -90335.904   -661.98062   -3055.1145    -266.2693     72.48533    62.774138    36.163945   -31713.942   -310712.19 
     190    400.10277    164371.92    72.458684    72.458684    36.150651          120    2600.1718    5369.2318   -81880.217   -281.06679   -2599.1601    48.001515    72.458684    62.751062    36.150651   -24636.938   -310761.23 
     200     437.2601       164183    72.430913    72.430914    36.136796          120    6633.4087    9302.3382    -57276.95   -584.37851   -2308.3658   -179.55805    72.430913    62.727011    36.136796   -13780.401   -310885.84 
     210    425.37426    164002.96    72.404427    72.404428    36.123582          120    9829.1622    12622.815   -30853.821   -650.43852   -2462.4149    140.07791    72.404427    62.704074    36.123582   -2800.6144   -310918.43 
     220    383.74686    163845.69    72.381277    72.381277    36.112031          120    12486.652    14264.186   -13648.801   -131.43303   -2466.5282    143.01128    72.381277    62.684025    36.112031    4367.3459   -310888.07 
     230    370.49857    163717.36    72.362373    72.362374      36.1026          120     13317.78    13769.332   -12792.908    12.703273   -2930.5375    -210.0985    72.362373    62.667654      36.1026    4764.7348   -310906.25 
     240    384.98351    163613.78     72.34711     72.34711    36.094985          120    11120.147    10689.963   -25148.833    276.38242   -2906.1221   -101.43917     72.34711    62.654435    36.094985    -1112.908   -310978.57 
     250    391.34584    163522.81    72.333699    72.333699    36.088294          120    8141.8547    7603.6472   -43598.217    303.68418   -2496.4986   -249.84197    72.333699    62.642821    36.088294   -9284.2383   -311038.01 
     260     368.1319    163431.22    72.320191    72.320192    36.081555          120    8482.0973    8073.4768   -58645.004    57.592955   -2162.1706   -175.02259    72.320191    62.631123    36.081555    -14029.81   -311040.86 
     270    340.36515    163331.96    72.305547    72.305547    36.074249          120     10145.44    9667.9466   -63878.462   -403.60793   -1757.6632    260.60429    72.305547    62.618441    36.074249   -14688.358   -311030.14 
     280    336.56597    163225.02    72.289764    72.289765    36.066374          120    12256.856    12880.334   -56866.066   -299.31998    -1351.226    541.42416    72.289764    62.604773    36.066374   -10576.292   -311062.51 
     290    341.38248    163117.13    72.273833    72.273833    36.058426          120    15428.427    17651.703   -41798.779   -524.21634    -1621.203     668.0145    72.273833    62.590976    36.058426   -2906.2166   -311111.96 
     300    334.16394     163018.8    72.259307    72.259307    36.051179          120    17753.012    20530.976   -26552.481   -522.03871   -1830.1445    530.34677    72.259307    62.578396    36.051179    3910.5024   -311138.19 
     310    316.70605    162938.22    72.247399      72.2474    36.045238          120    17886.349    20879.973   -16552.255   -254.75245   -2754.3867    439.37816    72.247399    62.568084    36.045238    7404.6891   -311142.22 
     320    307.42691    162877.84    72.238473    72.238474    36.040785          120    15835.314    18840.498   -14963.328   -396.28333    -2900.083    175.38683    72.238473    62.560354    36.040785    6570.8282   -311160.26 
     330    308.03587    162833.96    72.231986    72.231986    36.037548          120    13879.987    16201.835   -21218.934   -602.59801   -2745.9681   -73.675127    72.231986    62.554735    36.037548    2954.2958   -311196.66 
     340    304.18442    162799.37    72.226871    72.226871    36.034996          120    13147.045    14817.369   -33257.199    -273.8443   -2948.1067   -463.13776    72.226871    62.550305    36.034996   -1764.2614   -311224.12 
     350    292.00618    162766.33    72.221985    72.221985    36.032558          120    13266.182    15093.168   -43086.823   -107.78153   -2323.6897   -545.48952    72.221985    62.546074    36.032558   -4909.1576   -311233.69 
     360     274.5294    162730.24    72.216646    72.216646    36.029895          120     14519.39     16607.89   -45467.764   -608.61216   -2192.2785   -1088.0729    72.216646     62.54145    36.029895   -4780.1611   -311230.77 
     370    268.86137    162691.39    72.210899      72.2109    36.027028          120    16272.394    18260.587   -42087.365   -930.37953   -2259.4804   -1147.3041    72.210899    62.536474    36.027028    -2518.128   -311248.91 
     380    267.47442    162653.29    72.205262    72.205262    36.024215          120    18000.532    19779.903   -34448.495    -848.5255   -2480.2259   -767.40592    72.205262    62.531592    36.024215    1110.6466   -311275.32 
     390    265.22931     162620.9    72.200468    72.200469    36.021823          120    18417.885    20589.162   -25493.106   -702.61649   -2272.2571   -617.21812    72.200468     62.52744    36.021823    4504.6472   -311299.94 
     400    254.08111    162598.34    72.197129     72.19713    36.020158          120    18396.424    20521.762   -20126.684    -591.0643   -2486.6317   -460.01877    72.197129    62.524548    36.020158    6263.8342   -311306.06 
     410    249.82552    162587.07    72.195462    72.195462    36.019326          120    18714.121    20263.353   -20235.343     -259.863   -2836.6089   -495.06872    72.195462    62.523104    36.019326     6247.377   -311324.08 
     420    246.80267    162585.93    72.195292    72.195293    36.019241          120    18544.395     20208.56   -24827.066   -223.67263   -3203.6266    83.247456    72.195292    62.522958    36.019241    4641.9626   -311344.19 
     430    241.62335     162591.5    72.196117    72.196117    36.019653          120     17571.25    18971.419   -31545.446   -791.65949   -3629.6011    799.92043    72.196117    62.523672    36.019653    1665.7411   -311358.95 
     440    232.57504    162599.05    72.197234    72.197235     36.02021          120    17316.759    18045.727   -36699.089   -920.77623   -3482.0215    1231.4181    72.197234     62.52464     36.02021    -445.5345   -311365.62 
     450    224.77254    162605.43     72.19818     72.19818    36.020682          120    18498.673    18404.051   -38794.123   -933.41748   -2920.0605      884.837     72.19818    62.525458    36.020682   -630.46663   -311372.87 
     460    219.54409    162610.48    72.198926    72.198926    36.021054          120    20410.093    18776.654   -37286.507   -737.18004   -2335.1205    389.00162    72.198926    62.526105    36.021054    633.41315   -311384.52 
     470    217.09435    162616.07    72.199753    72.199754    36.021467          120    21454.592    18756.156   -32724.537   -255.70442   -2223.8427    192.36125    72.199753    62.526821    36.021467    2495.4036   -311400.17 
     480    212.03534    162624.92    72.201064    72.201064    36.022121          120    21857.189    19257.711   -26983.468    -98.74757   -2630.5186     64.79199    72.201064    62.527956    36.022121    4710.4771   -311411.38 
     490    206.90447    162639.78    72.203262    72.203262    36.023217          120     21520.89    19719.459   -24620.628    178.22318   -2990.3023    299.55337    72.203262    62.529859    36.023217    5539.9073   -311421.69 
     500    203.67335    162661.29    72.206445    72.206446    36.024806          120     20154.93    19457.933   -25689.443    137.96302   -3626.9065     737.5614    72.206445    62.532617    36.024806    4641.1399    -311434.6 
     510    199.38637    162687.66    72.210347    72.210347    36.026752          120    18775.398    18368.842   -28844.143      36.6736   -3597.5389     1209.995    72.210347    62.535995    36.026752    2766.6994   -311445.04 
     520     194.1893    162715.76    72.214504    72.214505    36.028826          120    17672.482    17325.919   -33228.184    273.72395   -3571.9921    1709.1965    72.214504    62.539596    36.028826    590.07257   -311453.05 
     530    188.95804    162742.39    72.218443    72.218444    36.030791          120    17121.712    16860.817   -36520.896    557.01483   -3277.0812    2060.3494    72.218443    62.543007    36.030791    -846.1224   -311460.32 
     540    183.08995    162765.63    72.221882    72.221882    36.032507          120    16932.302    17224.859    -37351.95     497.3472   -2983.4232    1742.5142    72.221882    62.545985    36.032507   -1064.9296   -311465.51 
     550     180.8325    162785.46    72.224814    72.224815     36.03397          120    16903.479     17831.25   -35646.447    359.33873    -2732.437    1170.5759    72.224814    62.548524     36.03397   -303.90605   -311476.54 
     560    176.07175    162803.28     72.22745     72.22745    36.035285          120     17191.22    18418.921   -32342.106    557.09298   -2515.4405    1051.0366     72.22745    62.550807    36.035285     1089.345   -311482.47 
     570    171.70967    162821.22    72.230102    72.230103    36.036608          120     17381.59    19049.054   -29624.413    628.79499   -2767.2001     853.5938    72.230102    62.553104    36.036608    2268.7435   -311488.73 
     580    168.68658    162841.07    72.233037    72.233038    36.038073          120    17469.987    19697.915   -27575.232    616.88962   -3000.4977    898.73581    72.233037    62.555646    36.038073    3197.5565   -311497.04 
     590    167.08827    162863.93    72.236417    72.236418    36.039759          120    17341.689    19231.706   -27568.285    642.64724   -3274.3877     850.6664    72.236417    62.558573    36.039759    3001.7032   -311507.58 
     600    164.18942    162889.35    72.240176    72.240176    36.041634          120    17251.065    18384.807   -29370.363    491.49737   -3516.9883    882.54651    72.240176    62.561828    36.041634    2088.5031   -311515.14 
     610    161.70879    162915.77    72.244081    72.244082    36.043583          120    16774.154    17723.692   -32708.929    496.37377   -4029.0525    1180.7086    72.244081     62.56521    36.043583    596.30545    -311523.2 
     620    158.97485    162941.06    72.247819     72.24782    36.045448          120    16537.164    17319.172    -35024.47    274.48485   -3761.1875    1134.3201    72.247819    62.568447    36.045448   -389.37821   -311530.16 
     630    156.01238    162963.87     72.25119    72.251191    36.047129          120    16292.173    16994.343   -35564.946    200.72704   -3582.2016    978.88382     72.25119    62.571367    36.047129   -759.47662   -311536.64 
     640    152.65711    162983.81    72.254137    72.254137      36.0486          120    15993.869    16759.846    -35240.75    63.798654    -3140.796    1164.1112    72.254137    62.573919      36.0486   -829.01148      -311542 
     650    149.02649     163001.1    72.256691    72.256692    36.049874          120    16171.308    17254.502   -33776.528   -196.12199   -2678.1625     1055.175    72.256691    62.576131    36.049874   -116.90609   -311546.26 
     660     146.0313    163016.91    72.259028    72.259028     36.05104          120    16550.231    17646.992   -32055.836    20.742416   -2662.6806    873.32128    72.259028    62.578154     36.05104     713.7956   -311551.99 
     670    143.02917    163032.52    72.261335    72.261335    36.052191          120    16691.393    17384.157   -31272.863    391.33041   -3014.5012    576.05416    72.261335    62.580152    36.052191    934.22891   -311556.82 
     680    141.44136    163048.32    72.263668    72.263668    36.053355          120    16289.478    17034.453   -31293.581     252.1285   -3408.1941    589.41988    72.263668    62.582173    36.053355    676.78349   -311563.87 
     690    138.85634    163063.93    72.265975    72.265976    36.054506          120    16141.489    16922.638    -32516.76    186.56779   -3438.6709    905.70151    72.265975    62.584171    36.054506    182.45574   -311568.66 
     700    137.90234    163078.59     72.26814    72.268141    36.055586          120    15733.658    16279.514   -34600.218   -17.366967   -3550.4254    1230.5344     72.26814    62.586046    36.055586    -862.3489   -311576.46 
     710    135.65446    163090.97    72.269969     72.26997    36.056499          120    15425.968    16093.151   -35410.319   -347.71557   -3341.3877     1353.356    72.269969     62.58763    36.056499   -1297.0667    -311581.4 
     720     133.3663    163100.57    72.271387    72.271387    36.057206          120    15374.762    16494.185    -35641.45   -545.55556    -3170.891    1229.5908    72.271387    62.588858    36.057206   -1257.5013    -311585.8 
     730     131.5646    163107.65    72.272432    72.272432    36.057727          120    15790.441    16739.636   -35089.954   -541.67679   -2851.1161    1094.1653    72.272432    62.589763    36.057727   -853.29237   -311590.87 
     740    129.45196    163112.95    72.273215    72.273216    36.058118          120    15673.477    17041.841    -33865.42    -406.8219    -2225.551    1260.9456    72.273215    62.590441    36.058118    -383.3677   -311595.11 
     750    127.45749    163117.26    72.273852    72.273853    36.058436          120    15355.011    16880.478   -32727.322   -416.00403   -2184.5754    1533.0994    72.273852    62.590993    36.058436   -163.94398   -311599.22 
     760    125.07027    163121.05    72.274411    72.274412    36.058715          120    15513.377    16569.185   -31917.819   -313.17325   -2403.2404    1819.0247    72.274411    62.591477    36.058715    54.914273   -311602.55 
     770    123.81216    163124.57    72.274931    72.274931    36.058974          120    15592.277    16177.845   -32493.523   -393.47304   -2611.2345    1938.8595    72.274931    62.591927    36.058974   -241.13348   -311607.92 
     780     122.6139    163127.49    72.275363    72.275363    36.059189          120    15564.652    16142.825   -33290.685   -492.70868   -2750.8874    1523.6093    72.275363    62.592301    36.059189   -527.73596   -311613.24 
     790    120.19563    163129.41    72.275646    72.275647    36.059331          120    15354.956    15759.785    -33546.18   -303.19821    -2668.185    1618.2627    72.275646    62.592547    36.059331   -810.47979   -311615.75 
     800    119.21885       163130    72.275734    72.275735    36.059375          120    15760.855    15737.602   -34193.341   -302.43276   -2799.0005    1720.4389    72.275734    62.592622    36.059375   -898.29454   -311620.46 
     810    118.21663    163129.21    72.275616    72.275617    36.059316          120    15776.715    16056.694   -34596.333   -158.10012   -3115.2457    1347.0035    72.275616     62.59252    36.059316   -920.97428   -311624.77 
     820    114.64164     163127.1    72.275305    72.275306    36.059161          120    16049.896    16074.533   -34735.688    145.27137   -2912.6927    1615.4541    72.275305    62.592251    36.059161   -870.41952   -311624.09 
     830    113.15686    163123.81     72.27482     72.27482    36.058918          120    16291.202    15997.755   -34663.124    88.138963   -2550.2593    1856.5986     72.27482     62.59183    36.058918   -791.38879    -311627.2 
     840    112.50714    163119.56    72.274192    72.274193    36.058605          120    16565.187    16153.807   -34481.369   -106.73813   -2201.9085     2171.836    72.274192    62.591287    36.058605   -587.45848   -311631.99 
     850    111.87937    163114.66    72.273468    72.273469    36.058244          120    16633.634    15754.227   -34285.745   -186.36322   -2238.8963    2378.1846    72.273468     62.59066    36.058244   -632.62813   -311636.68 
     860    110.47926    163109.17    72.272657    72.272658     36.05784          120    16692.362    15743.293   -33768.664   -148.99123   -2378.5374    2209.6551    72.272657    62.589958     36.05784   -444.33647   -311639.46 
     870     108.8217    163103.38    72.271801    72.271802    36.057413          120    16583.383    16188.863   -33303.964   -228.47208   -2589.4686    1837.7744    72.271801    62.589216    36.057413   -177.23964   -311641.26 
     880    107.96844    163097.66    72.270957    72.270957    36.056991          120    16297.571    16569.413   -33210.569   -109.19518    -2961.816    1348.0304    72.270957    62.588485    36.056991   -114.52833   -311644.78 
     890    107.04185    163092.11    72.270137    72.270138    36.056582          120    16558.507    16582.342   -33766.036    109.09174    -2895.668    1488.2536    72.270137    62.587775    36.056582   -208.39597   -311647.67 
     900    103.99548    163086.62    72.269326    72.269327    36.056178          120    16730.014    16731.197   -33913.714   -90.619012   -3058.0002    1108.2226    72.269326    62.587073    36.056178   -150.83447   -311646.61 
     910    103.28983    163081.24    72.268532    72.268532    36.055781          120    16669.817    16516.278   -33589.751   -223.40947    -3141.583    1157.0037    72.268532    62.586385    36.055781   -134.55197   -311649.33 
     920    103.48207    163076.01    72.267758    72.267759    36.055395          120    16583.317    16510.584   -33267.687   -351.65302   -2615.7056    1686.0525    72.267758    62.585715    36.055395   -57.928519   -311653.58 
     930     103.3404    163071.02    72.267022    72.267023    36.055028          120    16403.745    17132.826   -33161.659   -475.52837   -2780.2894    1953.5496    72.267022    62.585078    36.055028    124.97049   -311656.97 
     940     102.0268    163066.58    72.266366    72.266366    36.054701          120    16619.558    17485.248   -32357.354   -336.13235    -2909.019    2043.2575    72.266366    62.584509    36.054701    582.48383   -311658.08 
     950     101.4093    163063.25    72.265875    72.265875    36.054456          120    16555.404    17775.003   -31773.578   -258.59459   -3015.3908    1696.1879    72.265875    62.584084    36.054456    852.27654   -311660.64 
     960    100.35028    163061.37    72.265596    72.265597    36.054317          120    16418.291    17889.189   -32055.342   -131.53106   -3066.2813    1323.1026    72.265596    62.583843    36.054317    750.71277   -311662.27 
     970    99.695706    163060.73    72.265501    72.265502    36.054269          120    16460.098    17944.162   -32760.232    113.69306   -3134.1203    651.94438    72.265501     62.58376    36.054269    548.00906   -311664.31 
     980    98.083362    163060.92    72.265529     72.26553    36.054283          120    16465.452     17576.02   -33626.086   -42.446597   -3285.7527    411.92353    72.265529    62.583785    36.054283    138.46185   -311663.99 
     990    96.724453    163061.29    72.265584    72.265585    36.054311          120    16485.033    16977.831   -34429.382   -233.19463   -3005.0964    198.99483    72.265584    62.583832    36.054311   -322.17265   -311664.05 
    1000    96.617908    163061.22    72.265574    72.265574    36.054306          120    16541.221     17271.92   -34570.024   -402.83086   -3016.5672    38.005381    72.265574    62.583823    36.054306   -252.29442   -311666.93 
Loop time of 386.146 on 1 procs for 1000 steps with 14848 atoms

Performance: 0.224 ns/day, 107.263 hours/ns, 2.590 timesteps/s
100.0% CPU use with 1 MPI tasks x no OpenMP threads

MPI task timing breakdown:
Section |  min time  |  avg time  |  max time  |%varavg| %total
---------------------------------------------------------------
Pair    | 316.15     | 316.15     | 316.15     |   0.0 | 81.87
Bond    | 0.00054789 | 0.00054789 | 0.00054789 |   0.0 |  0.00
Kspace  | 14.722     | 14.722     | 14.722     |   0.0 |  3.81
Neigh   | 45.985     | 45.985     | 45.985     |   0.0 | 11.91
Comm    | 0.50924    | 0.50924    | 0.50924    |   0.0 |  0.13
Output  | 0.01372    | 0.01372    | 0.01372    |   0.0 |  0.00
Modify  | 8.5881     | 8.5881     | 8.5881     |   0.0 |  2.22
Other   |            | 0.1798     |            |       |  0.05

Nlocal:    14848 ave 14848 max 14848 min
Histogram: 1 0 0 0 0 0 0 0 0 0
Nghost:    46884 ave 46884 max 46884 min
Histogram: 1 0 0 0 0 0 0 0 0 0
Neighs:    1.00918e+07 ave 1.00918e+07 max 1.00918e+07 min
Histogram: 1 0 0 0 0 0 0 0 0 0

Total # of neighbors = 10091804
Ave neighs/atom = 679.674
Ave special neighs/atom = 0
Neighbor list builds = 136
Dangerous builds = 0
PPPM initialization ...
  using 12-bit tables for long-range coulomb (../kspace.cpp:321)
  G vector (1/distance) = 0.202621
  grid = 36 50 24
  stencil order = 5
  estimated absolute RMS force accuracy = 0.000996624
  estimated relative force accuracy = 6.92117e-05
  using double precision FFTs
  3d grid and FFT values/proc = 65395 43200
Setting up Verlet run ...
  Unit style    : metal
  Current step  : 0
  Time step     : 0.001
Per MPI rank memory allocation (min/avg/max) = 151.5 | 151.5 | 151.5 Mbytes
Step Temp Volume Cella Cellb Cellc CellGamma Pxx Pyy Pzz Pxy Pxz Pyz Lx Ly Lz Press PotEng 
       0    96.617908    163061.22    72.265574    72.265574    36.054306          120    16554.134    17285.648   -34561.869   -402.54841   -3016.2634    37.885392    72.265574    62.583823    36.054306   -240.69547   -311666.74 
  100000    99.517379    163504.02    72.330928    72.330929    36.086912          120    16269.505    16610.478   -34969.928   -458.32511   -1820.0328    1535.4454    72.330928    62.640422    36.086912   -696.64821   -311709.09 
Loop time of 42567.1 on 1 procs for 100000 steps with 14848 atoms

Performance: 0.203 ns/day, 118.242 hours/ns, 2.349 timesteps/s
82.8% CPU use with 1 MPI tasks x no OpenMP threads

MPI task timing breakdown:
Section |  min time  |  avg time  |  max time  |%varavg| %total
---------------------------------------------------------------
Pair    | 37924      | 37924      | 37924      |   0.0 | 89.09
Bond    | 0.056257   | 0.056257   | 0.056257   |   0.0 |  0.00
Kspace  | 1458.9     | 1458.9     | 1458.9     |   0.0 |  3.43
Neigh   | 2265.8     | 2265.8     | 2265.8     |   0.0 |  5.32
Comm    | 43.287     | 43.287     | 43.287     |   0.0 |  0.10
Output  | 0.00012898 | 0.00012898 | 0.00012898 |   0.0 |  0.00
Modify  | 857.9      | 857.9      | 857.9      |   0.0 |  2.02
Other   |            | 17.26      |            |       |  0.04

Nlocal:    14848 ave 14848 max 14848 min
Histogram: 1 0 0 0 0 0 0 0 0 0
Nghost:    46839 ave 46839 max 46839 min
Histogram: 1 0 0 0 0 0 0 0 0 0
Neighs:    1.00651e+07 ave 1.00651e+07 max 1.00651e+07 min
Histogram: 1 0 0 0 0 0 0 0 0 0

Total # of neighbors = 10065069
Ave neighs/atom = 677.874
Ave special neighs/atom = 0
Neighbor list builds = 6731
Dangerous builds = 0
 
All done!
Total wall time: 11:55:54
