LAMMPS (16 Mar 2018)
Reading data file ...
  triclinic box = (0 0 0) to (9.208 7.97436 18.376) with tilt (-4.604 0 0)
  1 by 1 by 1 MPI processor grid
  reading atoms ...
  116 atoms
Finding 1-2 1-3 1-4 neighbors ...
  special bond factors lj:   0          0          0         
  special bond factors coul: 0          0          0         
  0 = max # of 1-2 neighbors
  0 = max # of 1-3 neighbors
  0 = max # of 1-4 neighbors
  1 = max # of special neighbors
Replicating atoms ...
  triclinic box = (0 0 0) to (73.664 63.7949 36.752) with tilt (-36.832 0 0)
  1 by 1 by 1 MPI processor grid
  14848 atoms
Finding 1-2 1-3 1-4 neighbors ...
  special bond factors lj:   0          0          0         
  special bond factors coul: 0          0          0         
  0 = max # of 1-2 neighbors
  0 = max # of 1-3 neighbors
  0 = max # of 1-4 neighbors
  1 = max # of special neighbors
  Time spent = 0.00275993 secs
PPPM initialization ...
WARNING: System is not charge neutral, net charge = -0.2048 (../kspace.cpp:302)
  using 12-bit tables for long-range coulomb (../kspace.cpp:321)
  G vector (1/distance) = 0.201681
  grid = 36 50 24
  stencil order = 5
  estimated absolute RMS force accuracy = 0.00105653
  estimated relative force accuracy = 7.33721e-05
  using double precision FFTs
  3d grid and FFT values/proc = 65395 43200
Neighbor list info ...
  update every 1 steps, delay 0 steps, check yes
  max neighbors/atom: 2000, page size: 100000
  master list distance cutoff = 15.3
  ghost atom cutoff = 15.3
  binsize = 7.65, bins = 15 9 5
  3 neighbor lists, perpetual/occasional/extra = 3 0 0
  (1) pair morse, perpetual
      attributes: half, newton on
      pair build: half/bin/newton/tri
      stencil: half/bin/3d/newton/tri
      bin: standard
  (2) pair buck, perpetual, copy from (1)
      attributes: half, newton on
      pair build: copy
      stencil: none
      bin: none
  (3) pair lj/cut/coul/long, perpetual, copy from (1)
      attributes: half, newton on
      pair build: copy
      stencil: none
      bin: none
Setting up Verlet run ...
  Unit style    : metal
  Current step  : 0
  Time step     : 0.001
Per MPI rank memory allocation (min/avg/max) = 145.7 | 145.7 | 145.7 Mbytes
Step Temp Volume Cella Cellb Cellc CellGamma Pxx Pyy Pzz Pxy Pxz Pyz Lx Ly Lz Press PotEng 
       0         1500    172711.88       73.664    73.664001       36.752          120   -186364.28   -186637.05   -258131.27    119.40792   -38.136857    51.017463       73.664    63.794896       36.752   -210377.53   -308813.33 
      10    917.66278    172699.93    73.662301    73.662302    36.751152          120   -171812.25   -171892.47   -216385.31    131.37171   -16.034451   -403.66568    73.662301    63.793425    36.751152   -186696.68   -307699.14 
      20    1240.1393    172666.26    73.657513    73.657514    36.748764          120    -151332.4   -152189.57   -151158.85    277.83563    74.785429   -716.67303    73.657513    63.789278    36.748764   -151560.27   -308315.17 
      30     1344.616    172615.21    73.650254    73.650255    36.745142          120   -103069.01   -103651.42   -73078.842   -242.34804   -866.19418   -642.98404    73.650254    63.782992    36.745142   -93266.424    -308502.5 
      40    1128.1101    172553.36    73.641456    73.641457    36.740753          120   -60119.019     -61229.5   -5233.1982    -1814.349   -755.98737   -485.51136    73.641456    63.775372    36.740753   -42193.906   -308066.99 
      50     1269.843    172486.31    73.631916    73.631916    36.735993          120   -44882.204   -45856.431   -6291.3588   -418.04024    6.2491128   -872.39137    73.631916     63.76711    36.735993   -32343.331    -308317.2 
      60    1452.8027    172415.39    73.621824    73.621824    36.730958          120   -44425.719   -43697.716   -55225.658   -1509.0988   -1372.1658   -913.54225    73.621824     63.75837    36.730958   -47783.031   -308646.73 
      70    1547.4914    172339.15    73.610971    73.610971    36.725543          120   -42456.126   -44641.005   -113656.55   -1956.1472   -2048.7297   -466.88528    73.610971    63.748971    36.725543   -66917.894   -308814.39 
      80    1435.9355    172255.55    73.599066    73.599067    36.719604          120   -44908.645   -47864.345   -150847.25   -1824.7158   -1618.5217   -686.49728    73.599066    63.738662    36.719604   -81206.748   -308589.54 
      90    1260.8916    172163.16    73.585905    73.585906    36.713037          120   -43786.591   -43875.174   -157041.87   -1030.3887   -2583.4662    -2217.346    73.585905    63.727264    36.713037   -81567.877   -308241.61 
     100    1316.0315     172062.2    73.571519    73.571519     36.70586          120   -28160.863    -26927.55   -136044.97   -1455.0827   -2293.5545   -2400.6113    73.571519    63.714805     36.70586   -63711.126   -308335.43 
     110    1439.3647    171954.83    73.556212    73.556212    36.698223          120   -11145.328   -10985.296   -102755.35   -2051.3212   -851.72502   -2752.1601    73.556212    63.701548    36.698223   -41628.659    -308556.9 
     120     1463.016    171843.78    73.540374    73.540374    36.690321          120    -2539.584   -2662.2851   -63367.125   -1512.1008    104.56396   -1604.9936    73.540374    63.687832    36.690321   -22856.331   -308587.43 
     130    1421.2605    171731.45    73.524346    73.524347    36.682325          120   -1330.3616   -1395.4615   -32801.895   -1.0470209   -540.31897   -1576.7983    73.524346    63.673952    36.682325   -11842.573   -308493.96 
     140    1391.6048    171619.33    73.508343    73.508343     36.67434          120   -5224.0875   -5809.6146   -21550.279   -217.85749   -1428.0298    -2979.886    73.508343    63.660093     36.67434   -10861.327   -308423.41 
     150    1419.1046    171507.76     73.49241     73.49241    36.666391          120   -11348.317   -12171.651   -36463.121   -1162.2146   -1343.6733   -1894.9624     73.49241    63.646295    36.666391   -19994.363   -308462.69 
     160    1472.6272    171395.98     73.47644     73.47644    36.658424          120   -18809.414   -16743.813   -63800.268   -1172.9882    -1433.047   -3364.4655     73.47644    63.632464    36.658424   -33117.832    -308552.8 
     170    1491.6061    171282.78     73.46026     73.46026    36.650351          120   -20643.427   -21314.755   -91073.538   -1292.1651   -3156.0394   -3396.8643     73.46026    63.618452    36.650351   -44343.907   -308578.94 
     180    1451.3254    171167.22    73.443736    73.443737    36.642107          120   -18033.618   -19981.489   -106332.89    252.19322   -2856.3842   -3810.8297    73.443736    63.604142    36.642107   -48115.998   -308493.69 
     190    1431.8384    171049.17    73.426848    73.426849    36.633682          120   -17594.648   -16179.213   -108472.21    222.57522   -5321.6483   -3525.6009    73.426848    63.589517    36.633682   -47415.358   -308448.04 
     200    1456.0888    170929.06    73.409658    73.409658    36.625105          120   -13414.665   -14800.698   -96743.783   -1066.4904   -5768.3299    -3666.182    73.409658    63.574629    36.625105   -41653.049   -308484.76 
     210    1480.1982    170807.87    73.392304    73.392305    36.616447          120   -9569.0283   -10555.257    -79338.15   -173.53177   -3710.8596   -3795.9026    73.392304      63.5596    36.616447   -33154.145   -308521.41 
     220    1488.8908    170686.82    73.374962    73.374963    36.607795          120   -6756.6341   -7756.2849   -65411.481    -1851.539   -2376.7056   -4406.5705    73.374962    63.544582    36.607795   -26641.467   -308528.89 
     230    1479.5158    170566.91    73.357776    73.357777    36.599221          120   -6486.4376   -6942.9972   -55570.805   -2180.8927   -2081.8271   -6117.3232    73.357776    63.529699    36.599221    -23000.08    -308501.2 
     240    1485.7079    170448.76    73.340834    73.340835    36.590768          120   -7146.8597   -7026.3607   -53942.772   -1234.8372   -1312.2459   -5503.8596    73.340834    63.515026    36.590768   -22705.331   -308503.77 
     250    1496.7282     170332.6    73.324169     73.32417    36.582454          120   -7520.7853   -8022.5578   -57648.716   -1022.3528   -3235.4777   -5492.6282    73.324169    63.500594    36.582454   -24397.353   -308516.04 
     260    1527.3219    170218.37    73.307775    73.307775    36.574274          120   -9393.6829   -10620.823   -67592.509   -1589.0106    -3477.858   -4299.4686    73.307775    63.486396    36.574274   -29202.338   -308568.34 
     270     1531.058    170105.68    73.291593    73.291594    36.566201          120   -12880.929   -12543.917   -78718.818    -890.9145   -3589.1609   -3796.6196    73.291593    63.472382    36.566201   -34714.555   -308570.38 
     280    1515.6548    169994.07     73.27556    73.275561    36.558202          120   -14694.137   -11987.163   -84450.425   -853.06289   -3670.2591   -3201.0454     73.27556    63.458497    36.558202   -37043.908   -308537.17 
     290     1525.054     169883.4    73.259656    73.259657    36.550267          120   -13760.131   -9409.4047   -83005.699   -2003.3992   -2543.5552   -2437.6719    73.259656    63.444724    36.550267   -35391.745   -308552.21 
     300    1527.3323    169773.97    73.243923    73.243924    36.542418          120   -8795.7154   -8161.0941   -76772.907   -1993.5667    -2293.948     -3030.56    73.243923    63.431099    36.542418   -31243.239    -308554.6 
     310    1532.1638    169666.31    73.228437    73.228438    36.534692          120   -4460.0413    -5018.108   -65935.736   -1138.5354    -1486.287   -4527.6593    73.228437    63.417687    36.534692   -25137.962   -308562.12 
     320    1530.4548    169561.03    73.213288    73.213289    36.527134          120    -4009.566   -3398.6138   -57503.318   -820.83145   -1189.9925   -4599.0808    73.213288    63.404568    36.527134   -21637.166   -308557.55 
     330    1520.0707    169458.55    73.198535    73.198536    36.519773          120   -2390.7433   -1732.0718   -50632.595    124.96216   -1394.0717   -3463.5115    73.198535    63.391791    36.519773   -18251.803   -308537.13 
     340    1526.3191    169359.09    73.184212    73.184213    36.512627          120    -34.46701   -339.51809   -50586.025     1365.584   -1980.7651   -3870.8115    73.184212    63.379387    36.512627    -16986.67   -308550.04 
     350    1549.5293    169262.68    73.170322    73.170323    36.505697          120   -1589.7194   -2251.3349   -53541.235   -326.86771   -1051.1456   -3893.3183    73.170322    63.367358    36.505697    -19127.43   -308596.32 
     360    1549.2816    169168.95    73.156814    73.156814    36.498958          120   -3694.0968   -3362.8715   -63853.103   -1186.5388   -2377.4677   -2990.4366    73.156814     63.35566    36.498958    -23636.69   -308599.51 
     370    1531.8515    169077.34    73.143606    73.143606    36.492368          120   -3336.4369   -1273.2291   -68164.444   -990.10104   -3509.1496   -2623.3258    73.143606    63.344221    36.492368   -24258.037   -308571.79 
     380    1535.0585     168987.6    73.130663    73.130663    36.485911          120   -1910.7737   -233.07433    -69268.35   -785.68029   -3280.5466    -1283.644    73.130663    63.333013    36.485911   -23804.066   -308583.98 
     390    1530.2422    168899.65    73.117973    73.117974     36.47958          120   -1308.5762   -786.58647   -66129.449   -1292.3548   -970.66454   -2166.2519    73.117973    63.322023     36.47958   -22741.537   -308583.04 
     400    1525.4825    168813.49    73.105538    73.105538    36.473375          120    815.58489    2008.3796    -57921.09   -368.12494    604.09451   -1547.8431    73.105538    63.311254    36.473375   -18365.708   -308582.81 
     410    1537.9512    168729.41    73.093399    73.093399    36.467319          120     3310.483    5397.4868   -53286.185    440.95837    220.02542   -2270.0552    73.093399    63.300741    36.467319   -14859.405   -308615.31 
     420    1542.1013    168647.64     73.08159     73.08159    36.461427          120    4660.3986    6778.6894   -47596.093   -626.05898    44.383337   -1732.6774     73.08159    63.290514    36.461427   -12052.335   -308633.63 
     430    1525.2655    168568.29    73.070126    73.070126    36.455708          120    5094.9148    6401.7939   -44320.204    460.01771   -1032.6032   -2330.3495    73.070126    63.280586    36.455708   -10941.165      -308612 
     440    1537.1201    168491.26    73.058994    73.058994    36.450154          120    4800.4217    4051.7028   -47991.362    285.97896   -1411.7763   -2214.8535    73.058994    63.270945    36.450154   -13046.413   -308647.54 
     450    1531.2951    168416.18     73.04814    73.048141    36.444739          120    1815.6266     3436.449   -53656.167    209.30703   -422.90084   -311.78177     73.04814    63.261546    36.444739   -16134.697   -308649.12 
     460    1533.6904    168342.53    73.037491    73.037492    36.439426          120    556.92348    1583.6205     -58102.2    136.09433   -1039.7612   -292.36761    73.037491    63.252323    36.439426   -18653.885   -308666.04 
     470    1523.1586    168269.96    73.026994    73.026995    36.434189          120    3651.2878    3422.0438   -57247.962   -416.74218   -1266.4301   -408.22534    73.026994    63.243233    36.434189   -16724.877   -308657.98 
     480    1537.3792    168198.49    73.016654    73.016655     36.42903          120    4602.9379    6001.2773   -57192.254   -695.19192   -2618.2591    41.799079    73.016654    63.234278     36.42903   -15529.346   -308697.55 
     490    1533.7318    168128.17    73.006477    73.006478    36.423953          120    7324.0119    8316.7511   -54428.113    481.47789   -2011.3851   -1333.2057    73.006477    63.225465    36.423953   -12929.117   -308703.05 
     500    1519.3303    168059.15    72.996485    72.996485    36.418967          120    7756.0683    10811.838   -50289.359    479.02801   -278.47674    190.17804    72.996485    63.216811    36.418967   -10573.818   -308686.99 
     510    1512.0577    167991.52    72.986693    72.986693    36.414082          120    8272.9774    10258.818   -47294.762    1905.2437   -1095.2179   -914.79675    72.986693    63.208331    36.414082   -9587.6553   -308684.63 
     520    1523.2496    167925.28    72.977098    72.977099    36.409295          120    8923.8226    9865.0358   -45209.457    1249.6273   -2218.5479   -769.94915    72.977098    63.200022    36.409295   -8806.8663   -308718.22 
     530    1516.6563     167860.4    72.967698    72.967699    36.404605          120    8643.8225    10739.374   -47192.196    1303.5199    -2843.682   -161.66081    72.967698    63.191881    36.404605   -9269.6665   -308717.65 
     540    1511.4218    167796.74    72.958473    72.958474    36.400003          120    10252.496    8923.8975   -48289.469    1099.6128   -2857.1346   -177.88164    72.958473    63.183892    36.400003   -9704.3585   -308718.58 
     550     1523.764    167734.16    72.949402    72.949402    36.395477          120    9843.3995    11103.117   -48876.941    477.44469   -2227.7149   -509.99014    72.949402    63.176036    36.395477   -9310.1414   -308753.29 
     560    1522.7897    167672.62    72.940479    72.940479    36.391025          120    10023.935    14208.316    -48551.28    1084.5774    -1514.313   -982.40903    72.940479    63.168308    36.391025   -8106.3426   -308763.09 
     570    1513.5567    167612.17    72.931713    72.931713    36.386652          120    11925.836    16448.314   -47440.165    1280.1992   -915.30812   -196.34066    72.931713    63.160717    36.386652   -6355.3385   -308755.52 
     580    1515.7163    167552.88    72.923112    72.923112    36.382361          120    10980.148    15549.486   -47326.252    679.62917   -591.39102   -947.53034    72.923112    63.153268    36.382361    -6932.206   -308769.78 
     590    1497.3038    167494.67    72.914666    72.914666    36.378147          120    14485.231    16285.938   -45191.017    864.65469    1229.9601    1037.7985    72.914666    63.145954    36.378147   -4806.6158   -308744.64 
     600    1495.4675    167437.64     72.90639     72.90639    36.374018          120    14856.552    15208.499   -42748.048    292.39552    1813.4718   -195.21867     72.90639    63.138786    36.374018   -4227.6657    -308751.1 
     610    1512.8839    167381.81    72.898286    72.898286    36.369974          120    13835.246    15229.818   -42349.811    961.21585   -670.05891    247.54226    72.898286    63.131768    36.369974   -4428.2492   -308793.49 
     620    1503.0201    167327.13    72.890346    72.890347    36.366013          120    12844.491    18120.923   -38955.559    408.55525    -1845.236    910.65537    72.890346    63.124892    36.366013   -2663.3816   -308783.32 
     630    1504.4269    167273.66    72.882582    72.882582    36.362139          120    13410.328    17028.722   -37985.716    707.85591   -1196.3152   -443.18357    72.882582    63.118168    36.362139   -2515.5556   -308793.34 
     640    1508.7725    167221.38    72.874988    72.874989    36.358351          120    15759.437    16791.506   -40266.086    1839.4124   -899.79032   -760.05327    72.874988    63.111592    36.358351   -2571.7143   -308810.28 
     650    1510.4966    167170.21    72.867554    72.867555    36.354642          120     15161.21    15496.681    -41388.55     639.1827   -908.01982   -1425.1964    72.867554    63.105154    36.354642   -3576.8865   -308822.51 
     660    1511.9039    167120.04    72.860263    72.860264    36.351005          120    17426.681    14999.774    -43429.22   -146.69809    -552.2028   -440.73482    72.860263     63.09884    36.351005   -3667.5881   -308833.41 
     670    1491.9952    167070.78    72.853104    72.853105    36.347433          120     16120.62     16510.99    -44350.35    302.02424    1830.7522    452.93615    72.853104     63.09264    36.347433   -3906.2466   -308803.06 
     680     1486.247    167022.39     72.84607     72.84607    36.343923          120    15652.223    18476.692    -42464.71    952.28464    3168.6898    283.45701     72.84607    63.086548    36.343923   -2778.5982    -308799.8 
     690    1507.3792    166974.93    72.839169     72.83917     36.34048          120    15166.635    18819.642   -37532.717    836.48901    880.43782   -851.59268    72.839169    63.080572     36.34048   -1182.1468   -308847.22 
     700    1498.0911    166928.53    72.832422    72.832422    36.337114          120    18044.011    18359.089   -37481.417   -503.16952   -1482.5489   -811.51843    72.832422    63.074728    36.337114   -359.43899   -308836.03 
     710    1494.8996    166883.24    72.825835    72.825835    36.333828          120    19773.907    19349.574   -37234.405   -447.24209   -3024.6421   -119.94951    72.825835    63.069023    36.333828    629.69192   -308836.86 
     720    1489.1737     166839.1    72.819414    72.819414    36.330624          120    18569.239    19686.739   -36929.722    -213.7155   -4048.5321    -1151.465    72.819414    63.063463    36.330624    442.08513   -308831.97 
     730    1494.7645    166796.09    72.813154    72.813155    36.327501          120    17054.188     19635.21   -35731.933   -78.359881   -2984.5272   -1223.0233    72.813154    63.058042    36.327501    319.15497   -308848.01 
     740    1505.8757    166754.15    72.807052    72.807053    36.324457          120    20366.639    20432.705   -36986.155    219.15038   -1440.3858    351.48525    72.807052    63.052757    36.324457    1271.0631   -308874.49 
     750    1495.6834    166713.33     72.80111    72.801111    36.321492          120    20975.352    19521.355   -38717.086   -522.56998   -628.18562   -1471.4614     72.80111    63.047611    36.321492    593.20735   -308860.11 
     760    1506.0428    166673.52    72.795315    72.795316    36.318601          120    20457.798      18990.8   -38666.943    487.52435   -832.80574   -1526.7352    72.795315    63.042593    36.318601    260.55175   -308885.47 
     770    1493.0438    166634.68     72.78966     72.78966    36.315779          120    20629.865    18607.815   -37763.012   -56.954278   -2565.6818    31.895944     72.78966    63.037695    36.315779    491.55604   -308866.47 
     780    1492.6905     166596.8    72.784144    72.784144    36.313027          120    19497.003    21765.516   -36809.642    -1157.879   -1550.7067    1249.7423    72.784144    63.032918    36.313027    1484.2924   -308870.19 
     790    1498.2792    166559.93    72.778774    72.778775    36.310349          120    18517.847    23054.768   -36462.732   -1176.9518   -2101.1248    64.228504    72.778774    63.028268    36.310349    1703.2944   -308885.39 
     800    1491.9531    166524.08    72.773553    72.773553    36.307743          120    20701.566    20478.533   -37102.641   -486.27666    -3084.495   -940.21165    72.773553    63.023746    36.307743    1359.1528   -308877.83 
     810    1489.3512    166489.21    72.768472    72.768473    36.305209          120    21007.647    19832.377   -34989.618     518.7079   -3589.4806   -544.04821    72.768472    63.019346    36.305209    1950.1353   -308877.15 
     820    1486.8059    166455.31    72.763533    72.763534    36.302745          120    21423.856    19125.637   -34670.289    385.91674   -2985.3066    130.51811    72.763533    63.015069    36.302745    1959.7349   -308875.97 
     830    1496.9135    166422.39    72.758737    72.758737    36.300351          120    23656.585    20110.827   -35608.046    355.60361   -2414.8434   -280.87204    72.758737    63.010915    36.300351     2719.789   -308898.27 
     840    1501.8856    166390.49    72.754087    72.754087    36.298032          120    23527.694    20934.057   -35808.911   -556.35881   -1952.0908    448.87085    72.754087    63.006888    36.298032      2884.28   -308911.05 
     850    1490.5635    166359.59    72.749583    72.749584    36.295785          120    21433.575    21785.405   -34555.681   -247.01282   -3087.7135    178.00767    72.749583    63.002988    36.295785    2887.7664   -308890.96 
     860    1505.8562    166329.68    72.745223    72.745223    36.293609          120    20744.998    24256.638   -34740.848    -1512.437   -2824.7919   -854.50026    72.745223    62.999212    36.293609    3420.2627   -308922.78 
     870    1499.3622     166300.8    72.741013    72.741013    36.291509          120    22327.215    24454.085   -32329.358   -714.05478   -3016.4619   -354.80025    72.741013    62.995565    36.291509    4817.3141   -308911.93 
     880    1495.9081    166273.04    72.736964    72.736965    36.289489          120    23752.359    23730.676   -34012.327    1530.6378   -3133.5353    907.36921    72.736964     62.99206    36.289489     4490.236   -308908.08 
     890    1495.5695    166246.37    72.733075    72.733075    36.287548          120     25018.73    25807.681   -35120.364    1617.1052   -3757.6853   -188.68627    72.733075    62.988691    36.287548     5235.349   -308908.72 
     900    1481.3976    166220.81    72.729347    72.729348    36.285689          120    24946.723    25139.135   -32749.168    1873.7488   -2036.2311    -1058.226    72.729347    62.985463    36.285689    5778.8968   -308883.83 
     910    1491.2136    166196.41    72.725788    72.725789    36.283913          120    24952.382    26681.585   -31778.794    1777.2298   -2778.3854   -1022.0847    72.725788    62.982381    36.283913    6618.3908   -308904.88 
     920    1494.1298     166173.2    72.722403    72.722404    36.282224          120     24655.51    24588.829   -32397.195    1068.4236   -4011.9993   -1229.1592    72.722403    62.979449    36.282224    5615.7145   -308910.69 
     930    1480.6812    166151.11     72.71918    72.719181    36.280616          120    25744.091    26115.875    -31601.84    620.13729   -1577.7706   -1331.2898     72.71918    62.976658    36.280616     6752.709   -308884.85 
     940    1500.4226    166130.15    72.716123    72.716124    36.279091          120    22753.452    26060.022   -33202.744    1343.1641   -1391.1483   -1574.9552    72.716123     62.97401    36.279091    5203.5768   -308923.24 
     950    1495.1602     166110.2    72.713212    72.713212    36.277638          120    23558.556    23091.242   -33661.908    1436.0182   -2413.4547   -722.15724    72.713212    62.971489    36.277638    4329.2967    -308912.9 
     960    1485.8877    166091.14     72.71043     72.71043    36.276251          120    25569.398    24320.776   -34655.718    1949.6507   -3150.1114   -996.97374     72.71043     62.96908    36.276251    5078.1518   -308895.04 
     970     1495.897       166073    72.707783    72.707784     36.27493          120    25289.185    26127.581   -32957.184     2283.431   -1223.2463   -2131.3752    72.707783    62.966788     36.27493    6153.1937   -308913.12 
     980    1503.2496     166055.9    72.705288    72.705289    36.273685          120    25279.222    28078.853   -30327.935    2006.3576    26.630231   -877.99387    72.705288    62.964627    36.273685    7676.7134   -308926.71 
     990    1483.1458    166039.98    72.702964    72.702964    36.272526          120     26520.85    29085.519   -28955.648    1466.5451   -1301.3605    -164.4806    72.702964    62.962614    36.272526    8883.5736      -308886 
    1000      1485.49    166025.29    72.700821    72.700821    36.271456          120    26068.873    27917.578   -29096.827    1176.3212   -2098.5814   -353.49229    72.700821    62.960758    36.271456    8296.5413   -308888.75 
Loop time of 325.934 on 1 procs for 1000 steps with 14848 atoms

Performance: 0.265 ns/day, 90.537 hours/ns, 3.068 timesteps/s
100.0% CPU use with 1 MPI tasks x no OpenMP threads

MPI task timing breakdown:
Section |  min time  |  avg time  |  max time  |%varavg| %total
---------------------------------------------------------------
Pair    | 230.54     | 230.54     | 230.54     |   0.0 | 70.73
Bond    | 0.00016594 | 0.00016594 | 0.00016594 |   0.0 |  0.00
Kspace  | 10.726     | 10.726     | 10.726     |   0.0 |  3.29
Neigh   | 77.979     | 77.979     | 77.979     |   0.0 | 23.92
Comm    | 0.46474    | 0.46474    | 0.46474    |   0.0 |  0.14
Output  | 0.010419   | 0.010419   | 0.010419   |   0.0 |  0.00
Modify  | 6.1094     | 6.1094     | 6.1094     |   0.0 |  1.87
Other   |            | 0.1024     |            |       |  0.03

Nlocal:    14848 ave 14848 max 14848 min
Histogram: 1 0 0 0 0 0 0 0 0 0
Nghost:    46405 ave 46405 max 46405 min
Histogram: 1 0 0 0 0 0 0 0 0 0
Neighs:    9.9105e+06 ave 9.9105e+06 max 9.9105e+06 min
Histogram: 1 0 0 0 0 0 0 0 0 0

Total # of neighbors = 9910500
Ave neighs/atom = 667.464
Ave special neighs/atom = 0
Neighbor list builds = 286
Dangerous builds = 0
PPPM initialization ...
  using 12-bit tables for long-range coulomb (../kspace.cpp:321)
  G vector (1/distance) = 0.202328
  grid = 36 50 24
  stencil order = 5
  estimated absolute RMS force accuracy = 0.00101499
  estimated relative force accuracy = 7.04869e-05
  using double precision FFTs
  3d grid and FFT values/proc = 65395 43200
Setting up Verlet run ...
  Unit style    : metal
  Current step  : 0
  Time step     : 0.001
Per MPI rank memory allocation (min/avg/max) = 149.2 | 149.2 | 149.2 Mbytes
Step Temp Volume Cella Cellb Cellc CellGamma Pxx Pyy Pzz Pxy Pxz Pyz Lx Ly Lz Press PotEng 
       0      1485.49    166025.29    72.700821    72.700821    36.271456          120    26075.067    27924.426   -29095.898    1176.1695    -2098.623   -353.55321    72.700821    62.960758    36.271456    8301.1983   -308888.67 
  100000    1511.6409    168803.93    73.104158    73.104158    36.472687          120    16688.182    20232.007   -34843.266   -388.27351   -2075.3313    -3546.853    73.104158    63.310058    36.472687    692.30765   -309063.69 
Loop time of 32074.2 on 1 procs for 100000 steps with 14848 atoms

Performance: 0.269 ns/day, 89.095 hours/ns, 3.118 timesteps/s
100.0% CPU use with 1 MPI tasks x no OpenMP threads

MPI task timing breakdown:
Section |  min time  |  avg time  |  max time  |%varavg| %total
---------------------------------------------------------------
Pair    | 22579      | 22579      | 22579      |   0.0 | 70.40
Bond    | 0.016891   | 0.016891   | 0.016891   |   0.0 |  0.00
Kspace  | 1075.1     | 1075.1     | 1075.1     |   0.0 |  3.35
Neigh   | 7753.1     | 7753.1     | 7753.1     |   0.0 | 24.17
Comm    | 46.583     | 46.583     | 46.583     |   0.0 |  0.15
Output  | 9.8944e-05 | 9.8944e-05 | 9.8944e-05 |   0.0 |  0.00
Modify  | 610.2      | 610.2      | 610.2      |   0.0 |  1.90
Other   |            | 10.21      |            |       |  0.03

Nlocal:    14848 ave 14848 max 14848 min
Histogram: 1 0 0 0 0 0 0 0 0 0
Nghost:    46086 ave 46086 max 46086 min
Histogram: 1 0 0 0 0 0 0 0 0 0
Neighs:    9.74528e+06 ave 9.74528e+06 max 9.74528e+06 min
Histogram: 1 0 0 0 0 0 0 0 0 0

Total # of neighbors = 9745275
Ave neighs/atom = 656.336
Ave special neighs/atom = 0
Neighbor list builds = 28326
Dangerous builds = 0
 
All done!
Total wall time: 9:00:01
