LAMMPS (16 Mar 2018)
Reading data file ...
  triclinic box = (0 0 0) to (9.208 7.97436 18.376) with tilt (-4.604 0 0)
  1 by 1 by 1 MPI processor grid
  reading atoms ...
  116 atoms
Finding 1-2 1-3 1-4 neighbors ...
  special bond factors lj:   0          0          0         
  special bond factors coul: 0          0          0         
  0 = max # of 1-2 neighbors
  0 = max # of 1-3 neighbors
  0 = max # of 1-4 neighbors
  1 = max # of special neighbors
Replicating atoms ...
  triclinic box = (0 0 0) to (73.664 63.7949 36.752) with tilt (-36.832 0 0)
  1 by 1 by 1 MPI processor grid
  14848 atoms
Finding 1-2 1-3 1-4 neighbors ...
  special bond factors lj:   0          0          0         
  special bond factors coul: 0          0          0         
  0 = max # of 1-2 neighbors
  0 = max # of 1-3 neighbors
  0 = max # of 1-4 neighbors
  1 = max # of special neighbors
  Time spent = 0.00275493 secs
PPPM initialization ...
WARNING: System is not charge neutral, net charge = -0.2048 (../kspace.cpp:302)
  using 12-bit tables for long-range coulomb (../kspace.cpp:321)
  G vector (1/distance) = 0.201681
  grid = 36 50 24
  stencil order = 5
  estimated absolute RMS force accuracy = 0.00105653
  estimated relative force accuracy = 7.33721e-05
  using double precision FFTs
  3d grid and FFT values/proc = 65395 43200
Neighbor list info ...
  update every 1 steps, delay 0 steps, check yes
  max neighbors/atom: 2000, page size: 100000
  master list distance cutoff = 15.3
  ghost atom cutoff = 15.3
  binsize = 7.65, bins = 15 9 5
  3 neighbor lists, perpetual/occasional/extra = 3 0 0
  (1) pair morse, perpetual
      attributes: half, newton on
      pair build: half/bin/newton/tri
      stencil: half/bin/3d/newton/tri
      bin: standard
  (2) pair buck, perpetual, copy from (1)
      attributes: half, newton on
      pair build: copy
      stencil: none
      bin: none
  (3) pair lj/cut/coul/long, perpetual, copy from (1)
      attributes: half, newton on
      pair build: copy
      stencil: none
      bin: none
Setting up Verlet run ...
  Unit style    : metal
  Current step  : 0
  Time step     : 0.001
Per MPI rank memory allocation (min/avg/max) = 145.7 | 145.7 | 145.7 Mbytes
Step Temp Volume Cella Cellb Cellc CellGamma Pxx Pyy Pzz Pxy Pxz Pyz Lx Ly Lz Press PotEng 
       0         1400    172711.88       73.664    73.664001       36.752          120    -187562.5   -187816.58    -259314.1    111.53405    -35.59469    47.616189       73.664    63.794896       36.752   -211564.39   -308813.33 
      10    871.86488    172698.98    73.662166    73.662167    36.751085          120    -174382.1   -174464.96    -219113.9    139.47373   -21.693704   -388.43569    73.662166    63.793308    36.751085   -189320.32   -307804.44 
      20    1192.5124     172662.5    73.656979     73.65698    36.748497          120    -154951.5   -155695.77   -153984.98    246.64648    27.181415   -708.63241    73.656979    63.788816    36.748497   -154877.41   -308418.51 
      30    1292.8018       172607    73.649086    73.649087    36.744559          120    -107212.4   -107741.48   -75544.185   -222.39453   -861.17241   -634.50514    73.649086     63.78198    36.744559    -96832.69   -308599.87 
      40    1074.6658     172539.5    73.639484    73.639485    36.739769          120   -63338.038   -64409.035   -6250.7872   -1766.0621   -813.54969   -480.40823    73.639484    63.773665    36.739769   -44665.954   -308163.13 
      50    1213.8868    172466.14    73.629047    73.629047    36.734561          120    -46826.44    -47858.97   -5770.5861   -387.30197   -76.892561    -838.5631    73.629047    63.764626    36.734561   -33485.332   -308410.14 
      60    1402.3293    172388.54    73.618001    73.618002    36.729051          120   -45805.449   -45094.982   -54930.152   -1509.8531   -1404.9332   -915.03014    73.618001     63.75506    36.729051   -48610.194   -308752.15 
      70    1499.6044    172305.17    73.606133    73.606133    36.723129          120   -43669.102    -45676.82   -114134.35   -1965.6922   -2082.6581   -507.63405    73.606133    63.744781    36.723129   -67826.759   -308928.16 
      80    1386.6968    172213.89    73.593132    73.593133    36.716643          120    -45843.76   -48687.405    -152092.4    -1881.413   -1697.9691   -649.57829    73.593132    63.733523    36.716643   -82207.855   -308705.02 
      90    1206.0269    172113.18    73.578783    73.578784    36.709484          120   -44768.631   -44691.033   -158716.89   -1132.9327   -2605.2038   -2204.9616    73.578783    63.721096    36.709484   -82725.517   -308350.95 
     100    1258.6973     172003.3    73.563123    73.563123    36.701671          120   -29035.612   -27754.892   -137742.85   -1399.3514   -2279.0192   -2280.0389    73.563123    63.707534    36.701671   -64844.452   -308444.99 
     110    1385.7185    171886.61    73.546484    73.546484    36.693369          120   -11853.165   -11630.225   -103943.77   -2059.2465   -814.67419   -2628.4056    73.546484    63.693124    36.693369    -42475.72   -308677.39 
     120    1408.3913    171766.14    73.529297    73.529297    36.684795          120   -2880.4066   -2905.1569   -63945.651    -1554.664     31.20543   -1575.9566    73.529297    63.678239    36.684795   -23243.738   -308709.84 
     130    1363.4618    171644.54    73.511942    73.511943    36.676136          120   -1844.9156   -1561.8493   -32702.513    -97.68743   -717.68977   -1569.5883    73.511942     63.66321    36.676136   -12036.426   -308614.37 
     140    1332.8625     171523.5    73.494658    73.494659    36.667513          120   -5834.2475   -6070.5201   -21181.528   -433.75951    -1366.529   -2945.1011    73.494658    63.648242    36.667513   -11028.765   -308545.67 
     150    1357.5101    171403.41    73.477501    73.477502    36.658953          120   -12038.978   -12373.704   -36385.599   -1150.1068   -1301.6046   -2033.8203    73.477501    63.633383    36.658953   -20266.094   -308583.31 
     160    1413.4297    171283.46    73.460357    73.460357      36.6504          120   -19319.102    -17174.97   -63815.898    -1394.012   -1468.4739   -3395.3377    73.460357    63.618536      36.6504   -33436.657   -308682.51 
     170    1431.4104    171162.39    73.443045    73.443045    36.641762          120   -21230.349   -21763.574   -91105.157   -1477.6801   -2949.6151   -3351.8366    73.443045    63.603543    36.641762   -44699.693   -308711.33 
     180    1386.6135    171039.23    73.425426    73.425426    36.632972          120   -19006.592   -20187.454   -106986.47    69.181183   -2870.2229   -3683.5484    73.425426    63.588285    36.632972    -48726.84    -308622.2 
     190    1368.5019    170913.84    73.407478    73.407478    36.624017          120   -18063.711   -16538.432   -109257.04   -90.329428   -5258.9523   -3350.6293    73.407478    63.572741    36.624017    -47953.06   -308584.57 
     200    1393.5962    170786.72    73.389274    73.389275    36.614935          120   -13799.598   -14697.921   -97285.483   -1262.0045    -5515.495   -3345.7287    73.389274    63.556976    36.614935   -41927.667   -308628.61 
     210    1415.9376    170658.96     73.37097     73.37097    36.605803          120   -10159.418   -11230.269   -79493.422   -240.97348   -4141.4579   -3754.9846     73.37097    63.541124    36.605803   -33627.703    -308667.4 
     220    1420.7575    170531.86    73.352751    73.352752    36.596714          120   -7000.6351   -8486.5239   -65223.176   -1809.3196   -2323.2556   -4281.2946    73.352751    63.525347    36.596714   -26903.445   -308672.52 
     230    1411.7543     170406.5    73.334772    73.334772    36.587743          120   -7499.8915   -7997.6685   -56301.255   -2091.6817   -2234.5111   -6443.6893    73.334772    63.509776    36.587743   -23932.938   -308651.59 
     240    1419.1463    170283.45    73.317116    73.317117    36.578935          120   -7967.4698   -7925.2332   -53526.612   -903.00632   -890.45727   -5733.8494    73.317116    63.494486    36.578935   -23139.772   -308662.71 
     250    1427.6733    170162.95    73.299818    73.299818    36.570304          120   -9319.9618   -9449.5058   -58570.129   -822.42795    -2622.578    -5154.947    73.299818    63.479505    36.570304   -25779.866   -308676.64 
     260    1452.2444    170044.82    73.282853    73.282853     36.56184          120   -11489.942   -11718.205   -69111.809   -1059.9549   -3036.1888   -4392.8054    73.282853    63.464813     36.56184   -30773.319   -308723.97 
     270    1449.2034    169928.59    73.266152    73.266152    36.553508          120   -14037.614   -12663.261   -79505.764   -277.26742   -3709.3042   -4157.9915    73.266152    63.450349    36.553508   -35402.213   -308720.44 
     280    1441.5409    169813.81    73.249651    73.249652    36.545276          120    -14732.61   -12595.656   -83893.336   -264.50122   -2647.9143     -3644.55    73.249651     63.43606    36.545276   -37073.867   -308710.18 
     290    1444.9591    169700.37    73.233338    73.233338    36.537137          120   -13643.772   -8838.8548   -81784.538   -1236.8498   -2122.0871   -2578.9377    73.233338    63.421931    36.537137   -34755.721   -308721.92 
     300    1436.0971    169588.61    73.217257    73.217258    36.529114          120   -9751.9332    -6794.581   -75195.866   -1356.0853   -2395.6646   -3597.3315    73.217257    63.408005    36.529114   -30580.793   -308712.02 
     310    1441.1628    169479.01    73.201481    73.201482    36.521243          120   -6928.3945   -5285.4708   -66737.325   -1000.8762    -1885.799   -5218.3648    73.201481    63.394343    36.521243   -26317.063   -308729.87 
     320    1440.6456    169372.02    73.186074    73.186074    36.513556          120   -6230.6502   -3634.0038   -58723.313   -256.31907   -1604.6671   -5531.4398    73.186074       63.381    36.513556   -22862.656   -308737.24 
     330     1438.849    169267.97    73.171084    73.171084    36.506077          120   -3651.1093    -1878.319   -52748.104    477.11853   -899.18746   -5270.5633    73.171084    63.368018    36.506077   -19425.844   -308742.55 
     340    1443.0822    169167.09    73.156544    73.156545    36.498823          120   -2548.2313   -501.53722   -51963.942     1803.669   -1941.6671   -5298.4408    73.156544    63.355427    36.498823   -18337.904   -308761.84 
     350    1450.8656    169069.32    73.142449    73.142449    36.491791          120   -2488.2014   -3447.2861   -55308.997    174.37528   -483.15287   -5497.8384    73.142449    63.343219    36.491791   -20414.828   -308788.14 
     360    1444.8377    168974.24    73.128735    73.128736    36.484949          120   -4724.9171   -3960.9004   -64029.958   -196.01642   -1926.6923   -3828.4913    73.128735    63.331343    36.484949   -24238.592   -308789.14 
     370    1440.2443    168881.24    73.115317    73.115317    36.478254          120    -6090.819   -3599.3153   -70343.734   -181.61636   -2419.8845   -3489.7471    73.115317    63.319722    36.478254   -26677.956   -308793.99 
     380     1438.684    168789.93    73.102137    73.102137    36.471679          120   -4023.0661   -1461.1366   -68461.266   -124.64618   -3579.0124   -2792.1752    73.102137    63.308308    36.471679    -24648.49   -308804.73 
     390    1442.4591     168700.3    73.089195    73.089196    36.465222          120   -2282.5477   -1004.6958   -64382.167   -1610.7221   -1177.6035   -2534.4755    73.089195      63.2971    36.465222    -22556.47   -308826.12 
     400    1421.9512    168612.49    73.076511    73.076512    36.458894          120    206.05937    2772.0496    -56846.66    -1010.236    669.49047   -2567.2458    73.076511    63.286116    36.458894   -17956.184   -308798.33 
     410    1438.0926    168526.81    73.064132    73.064133    36.452718          120    2722.1908    5482.9783   -51294.251   -910.98585    -41.07012   -3355.1547    73.064132    63.275395    36.452718   -14363.027   -308842.45 
     420    1428.1377    168443.49    73.052089    73.052089    36.446709          120     3735.514    5337.6866   -46192.265   -675.65457    1319.2019   -3507.5859    73.052089    63.264965    36.446709   -12373.022   -308835.33 
     430    1423.3114    168362.54    73.040384    73.040385    36.440869          120    4537.3532    4501.4752   -45136.852   -1157.5675       1861.3   -3798.0398    73.040384    63.254829    36.440869   -12032.675   -308837.52 
     440    1449.3952    168283.77    73.028992    73.028992    36.435186          120    2691.1789    2637.4061   -50021.022   -1140.0788    887.04001    -2287.586    73.028992    63.244963    36.435186   -14897.479   -308899.78 
     450    1431.2997    168206.72    73.017844    73.017844    36.429624          120     2327.501    1725.7549   -54674.856   -1322.6195    268.55524   -309.26247    73.017844    63.235308    36.429624   -16873.867   -308878.23 
     460    1422.0182    168130.96    73.006881    73.006881    36.424154          120    993.93263    2992.0336   -59606.683   -1385.0769   -1584.8362    260.05538    73.006881    63.225814    36.424154   -18540.239   -308871.95 
     470    1445.7926    168056.21     72.99606     72.99606    36.418755          120    1470.8118    5629.0556   -58430.742   -1867.4914   -644.22077   -137.16517     72.99606    63.216443    36.418755   -17110.292   -308930.21 
     480    1422.8382    167982.48    72.985383    72.985384    36.413428          120    4356.9098    9037.1924   -56016.498    -2731.389   -1233.8792   -1264.5149    72.985383    63.207196    36.413428   -14207.465   -308897.61 
     490    1414.3584    167909.96    72.974878    72.974878    36.408187          120    6710.3718    10901.192   -53384.821   -1375.0374   -1650.8418   -558.88958    72.974878    63.198099    36.408187   -11924.419   -308892.47 
     500    1421.7892    167838.79    72.964567    72.964568    36.403043          120    8419.3291    10166.383   -48275.114    400.69887   -955.08582   -1013.5147    72.964567    63.189169    36.403043   -9896.4674   -308917.19 
     510    1418.0779    167769.08    72.954463    72.954464    36.398002          120    8982.7009    7805.2885   -44388.335   -496.84082   -190.64834   -2532.6783    72.954463    63.180419    36.398002   -9200.1152   -308920.07 
     520    1420.4322     167700.8    72.944565    72.944566    36.393064          120    11119.789    8438.5087   -42959.364   -1918.9332   -739.01962    -2000.316    72.944565    63.171847    36.393064   -7800.3555   -308935.22 
     530    1420.3696    167633.97    72.934874    72.934875    36.388229          120    9313.1455    10859.264    -45105.15    -1742.413   -841.82525   -158.41314    72.934874    63.163455    36.388229   -8310.9136      -308945 
     540    1416.7849    167568.45    72.925371    72.925372    36.383488          120     8998.424    10959.852   -45906.765   -882.95451   -1514.2896    618.38833    72.925371    63.155225    36.383488   -8649.4964   -308948.41 
     550    1415.3382     167504.1    72.916034    72.916034    36.378829          120    9178.8306     11151.56    -47846.03   -346.59759   -800.36157    1027.9891    72.916034    63.147138    36.378829   -9171.8799   -308955.27 
     560     1413.693    167440.76    72.906842    72.906842    36.374243          120    9606.7837    11754.312   -49176.488   -657.70731   -879.43429    1367.3475    72.906842    63.139178    36.374243   -9271.7973   -308961.66 
     570    1403.6583    167378.34    72.897781    72.897782    36.369723          120    11184.811    11654.056   -50122.672   -1028.9063   -59.147385   -646.74158    72.897781    63.131331    36.369723   -9094.6016   -308952.65 
     580    1413.2916     167316.8    72.888847    72.888848    36.365265          120    11014.516    12785.823   -47786.825    491.97577     286.0269   -1048.1813    72.888847    63.123594    36.365265   -7995.4953   -308980.08 
     590    1409.8067    167256.24    72.880052    72.880052    36.360877          120    12066.369    14464.032   -44648.664    766.39524   -682.95884   -1431.9766    72.880052    63.115977    36.360877   -6039.4211   -308982.23 
     600    1410.7839    167196.76    72.871411    72.871412    36.356566          120    10418.546      13399.6   -43034.953    1011.9964   -230.18872   -657.27467    72.871411    63.108494    36.356566   -6405.6023   -308993.07 
     610    1418.9336     167138.3    72.862918    72.862918    36.352329          120    13068.306    13448.506   -42396.343    550.14116   -1719.6327   -1755.5898    72.862918    63.101138    36.352329   -5293.1767   -309017.58 
     620    1391.5855    167080.92    72.854577    72.854578    36.348168          120    13827.439    13119.743   -41850.163   -460.38377    -2076.515   -1002.0831    72.854577    63.093916    36.348168   -4967.6604   -308973.21 
     630    1402.9389     167024.6    72.846391    72.846392    36.344083          120     14053.47    13494.487   -39720.012    -279.7975   -1016.0407   -1424.2655    72.846391    63.086826    36.344083   -4057.3512      -309003 
     640    1412.5821    166969.39    72.838363    72.838364    36.340078          120    14178.042    14047.123   -41408.884    22.902583   -1446.4017   -856.10013    72.838363    63.079874    36.340078   -4394.5732   -309029.69 
     650    1404.2787    166915.22    72.830486    72.830486    36.336148          120    14899.479    14478.238    -40685.39    -37.34032   -2516.5388   -305.74943    72.830486    63.073051    36.336148   -3769.2244   -309022.17 
     660    1389.7464    166862.08    72.822756    72.822757    36.332292          120    15071.532    14620.418   -41118.356    509.68899   -1597.4464   -60.894758    72.822756    63.066358    36.332292   -3808.8017   -309000.36 
     670    1408.8577    166809.94     72.81517    72.815171    36.328507          120    14681.494    15811.571    -42181.25   -511.15481   -984.90562   -1190.6654     72.81517    63.059788    36.328507   -3896.0619   -309044.13 
     680    1403.2407    166758.77    72.807724    72.807724    36.324792          120    16570.121    17737.908    -41695.96    115.51666   -777.19096   -991.09551    72.807724    63.053339    36.324792   -2462.6437    -309040.8 
     690    1396.6168    166708.66     72.80043    72.800431    36.321153          120    16823.647    16946.867   -39663.061    615.51544   -763.49532   -788.68821     72.80043    63.047023    36.321153   -1964.1825   -309035.01 
     700    1398.4653    166659.66    72.793297    72.793298    36.317594          120    17154.653    17559.778   -37913.146   -453.61538   -2089.1072   -1249.1846    72.793297    63.040845    36.317594   -1066.2386   -309044.81 
     710    1400.2953    166611.81    72.786331    72.786331    36.314118          120    17571.599    17188.356   -37982.021   -2367.0089   -2138.8042    117.02626    72.786331    63.034812    36.314118   -1074.0219   -309053.64 
     720    1400.8144    166565.07    72.779524    72.779524    36.310722          120    18596.293    15374.274   -38620.689   -85.594863   -502.43374   -1140.3132    72.779524    63.028917    36.310722   -1550.0405   -309059.91 
     730    1399.1596    166519.36    72.772864    72.772865      36.3074          120    18189.283    16047.167   -39242.221    567.59604   -2301.4597   -1948.9532    72.772864     63.02315      36.3074   -1668.5905   -309062.94 
     740    1396.0814    166474.64    72.766349     72.76635    36.304149          120    19875.679    17286.438    -37443.34   -1255.8333   -2195.3282   -2490.1929    72.766349    63.017508    36.304149   -93.741023   -309062.52 
     750     1391.668    166431.03    72.759996    72.759996     36.30098          120    20546.667     18629.32   -35443.511    84.508441   -1903.1614   -737.67707    72.759996    63.012005     36.30098    1244.1589   -309059.51 
     760    1390.5066    166388.64    72.753817    72.753817    36.297897          120    18947.149     18058.77   -36360.648   -69.374157   -2669.7032    575.33575    72.753817    63.006654    36.297897     215.0903    -309061.9 
     770    1392.7859    166347.32    72.747795    72.747795    36.294892          120    17343.582    17256.976   -37021.707   -185.91887   -2663.2244   -307.43468    72.747795    63.001439    36.294892   -807.04943   -309070.77 
     780    1403.1284    166306.96    72.741911    72.741911    36.291957          120    17334.965    18376.093   -37968.849     256.7842   -1229.5334   -1385.8068    72.741911    62.996343    36.291957   -752.59698   -309093.92 
     790    1397.3035    166267.53    72.736162    72.736162    36.289089          120    18968.426    19490.523   -37211.982    411.41499   -494.40484    -1086.299    72.736162    62.991365    36.289089    415.65562   -309087.69 
     800    1384.4967    166229.11    72.730559    72.730559    36.286293          120    19595.623     19591.95   -36862.352   -140.82354   -1765.3096   -1343.8987    72.730559    62.986512    36.286293    775.07376   -309066.54 
     810    1409.0537    166191.71    72.725104    72.725104    36.283572          120    20420.573    19277.646   -36373.792   -94.186046   -1444.1046     -2814.88    72.725104    62.981788    36.283572    1108.1423   -309117.31 
     820     1393.663    166155.38    72.719803    72.719804    36.280927          120    21144.206    20411.228   -33251.179    86.844442    120.28762   -2775.9628    72.719803    62.977198    36.280927    2768.0851   -309091.01 
     830    1384.9007    166120.23    72.714675    72.714675    36.278368          120    22654.169    22858.811    -34249.06    74.137242    733.48351     -2148.83    72.714675    62.972756    36.278368    3754.6399   -309077.08 
     840    1397.2271    166086.33    72.709728    72.709729    36.275901          120    22611.295     24756.81   -33797.073    823.88721    633.08781   -1602.9924    72.709728    62.968473    36.275901    4523.6774   -309103.76 
     850    1392.4526    166053.74    72.704973    72.704974    36.273528          120    22016.318    24423.494   -33310.561    1151.9928     223.1226   -1798.3375    72.704973    62.964354    36.273528    4376.4168   -309097.85 
     860    1386.4741    166022.41      72.7004    72.700401    36.271247          120    21177.533     21850.66   -36551.289    877.17353   -3562.6888   -2948.5617      72.7004    62.960394    36.271247     2158.968   -309088.64 
     870    1386.7578    165992.12    72.695978    72.695978     36.26904          120    21949.401    23057.198   -36611.264    2026.7363   -2833.3139   -3775.6343    72.695978    62.956564     36.26904     2798.445    -309090.9 
     880    1403.2649    165962.86    72.691706    72.691707    36.266909          120      22852.4    23788.145   -35885.512   -5.7838901   -358.49451   -2513.4382    72.691706    62.952865    36.266909     3585.011   -309122.87 
     890    1391.2742    165934.68    72.687592    72.687592    36.264856          120    22652.685    23162.107   -36721.773     361.4831    261.60924   -2473.3975    72.687592    62.949302    36.264856     3031.006   -309101.69 
     900    1384.6173    165907.53    72.683627    72.683628    36.262878          120    23527.198    24948.277   -35720.294    852.42489   -42.771695   -1547.3746    72.683627    62.945868    36.262878    4251.7272   -309090.42 
     910    1396.7832    165881.49    72.679825    72.679826    36.260981          120    25186.744    23384.866   -30898.597    612.02189   -742.39608   -1097.2778    72.679825    62.942576    36.260981    5891.0043   -309114.38 
     920    1397.5804    165856.71    72.676205    72.676205    36.259175          120    24326.275    24528.917   -32055.594    39.409665   -186.51001   -1307.5253    72.676205     62.93944    36.259175    5599.8663   -309116.29 
     930    1386.0222    165833.11    72.672758    72.672759    36.257456          120    24439.899    22896.869   -33369.081    684.93941    910.56709   -1902.5208    72.672758    62.936456    36.257456    4655.8957   -309093.87 
     940    1396.8289    165810.58    72.669467    72.669468    36.255814          120    24365.324    22138.501   -33347.466     796.5748   -1437.9179     -1854.78    72.669467    62.933605    36.255814    4385.4529   -309114.43 
     950    1393.4429    165789.07    72.666324    72.666325    36.254246          120    24045.865    24473.395     -33386.6    1196.9024   -1609.7957   -1070.7763    72.666324    62.930884    36.254246      5044.22   -309107.29 
     960    1398.8327    165768.63    72.663337    72.663338    36.252755          120    25853.429    25324.402   -31511.086     720.4985   -1874.0674   -2196.2746    72.663337    62.928297    36.252755    6555.5816   -309117.38 
     970    1418.0087    165749.36    72.660523    72.660523    36.251351          120     25816.16    26066.777   -32140.732    467.06531   -2543.0366   -1372.8378    72.660523    62.925859    36.251351    6580.7347   -309152.68 
     980    1410.9046    165731.28    72.657879     72.65788    36.250032          120    24308.778    27353.793   -32134.446   -185.98085   -2490.3537   -862.79237    72.657879     62.92357    36.250032    6509.3749   -309139.29 
     990    1407.7074    165714.34    72.655404    72.655405    36.248797          120    26739.037    26535.544   -31740.061    12.673816   -1333.6206   -2308.3247    72.655404    62.921426    36.248797    7178.1736   -309133.43 
    1000      1394.63    165698.59    72.653103    72.653104    36.247649          120    26667.546    27343.968   -28897.803    533.88071   -1210.8289   -3659.4479    72.653103    62.919434    36.247649    8371.2368   -309109.56 
Loop time of 325.052 on 1 procs for 1000 steps with 14848 atoms

Performance: 0.266 ns/day, 90.292 hours/ns, 3.076 timesteps/s
100.0% CPU use with 1 MPI tasks x no OpenMP threads

MPI task timing breakdown:
Section |  min time  |  avg time  |  max time  |%varavg| %total
---------------------------------------------------------------
Pair    | 232.84     | 232.84     | 232.84     |   0.0 | 71.63
Bond    | 0.00016809 | 0.00016809 | 0.00016809 |   0.0 |  0.00
Kspace  | 10.85      | 10.85      | 10.85      |   0.0 |  3.34
Neigh   | 74.653     | 74.653     | 74.653     |   0.0 | 22.97
Comm    | 0.46524    | 0.46524    | 0.46524    |   0.0 |  0.14
Output  | 0.010496   | 0.010496   | 0.010496   |   0.0 |  0.00
Modify  | 6.1324     | 6.1324     | 6.1324     |   0.0 |  1.89
Other   |            | 0.1006     |            |       |  0.03

Nlocal:    14848 ave 14848 max 14848 min
Histogram: 1 0 0 0 0 0 0 0 0 0
Nghost:    46502 ave 46502 max 46502 min
Histogram: 1 0 0 0 0 0 0 0 0 0
Neighs:    9.93047e+06 ave 9.93047e+06 max 9.93047e+06 min
Histogram: 1 0 0 0 0 0 0 0 0 0

Total # of neighbors = 9930470
Ave neighs/atom = 668.809
Ave special neighs/atom = 0
Neighbor list builds = 272
Dangerous builds = 0
PPPM initialization ...
  using 12-bit tables for long-range coulomb (../kspace.cpp:321)
  G vector (1/distance) = 0.20236
  grid = 36 50 24
  stencil order = 5
  estimated absolute RMS force accuracy = 0.00101296
  estimated relative force accuracy = 7.03462e-05
  using double precision FFTs
  3d grid and FFT values/proc = 65395 43200
Setting up Verlet run ...
  Unit style    : metal
  Current step  : 0
  Time step     : 0.001
Per MPI rank memory allocation (min/avg/max) = 149.2 | 149.2 | 149.2 Mbytes
Step Temp Volume Cella Cellb Cellc CellGamma Pxx Pyy Pzz Pxy Pxz Pyz Lx Ly Lz Press PotEng 
       0      1394.63    165698.59    72.653103    72.653104    36.247649          120    26674.948    27351.264    -28896.42    534.12505   -1210.6394   -3659.5287    72.653103    62.919434    36.247649    8376.5973   -309109.47 
  100000    1428.8788    168417.76    73.048368    73.048369    36.444853          120    15940.406    21244.507   -37994.726    1766.6554    1707.8978    378.58327    73.048368    63.261743    36.444853   -269.93783   -309287.79 
Loop time of 31624.6 on 1 procs for 100000 steps with 14848 atoms

Performance: 0.273 ns/day, 87.846 hours/ns, 3.162 timesteps/s
100.0% CPU use with 1 MPI tasks x no OpenMP threads

MPI task timing breakdown:
Section |  min time  |  avg time  |  max time  |%varavg| %total
---------------------------------------------------------------
Pair    | 22451      | 22451      | 22451      |   0.0 | 70.99
Bond    | 0.014885   | 0.014885   | 0.014885   |   0.0 |  0.00
Kspace  | 1077.9     | 1077.9     | 1077.9     |   0.0 |  3.41
Neigh   | 7426.2     | 7426.2     | 7426.2     |   0.0 | 23.48
Comm    | 46.217     | 46.217     | 46.217     |   0.0 |  0.15
Output  | 9.8228e-05 | 9.8228e-05 | 9.8228e-05 |   0.0 |  0.00
Modify  | 613.32     | 613.32     | 613.32     |   0.0 |  1.94
Other   |            | 9.974      |            |       |  0.03

Nlocal:    14848 ave 14848 max 14848 min
Histogram: 1 0 0 0 0 0 0 0 0 0
Nghost:    46065 ave 46065 max 46065 min
Histogram: 1 0 0 0 0 0 0 0 0 0
Neighs:    9.76817e+06 ave 9.76817e+06 max 9.76817e+06 min
Histogram: 1 0 0 0 0 0 0 0 0 0

Total # of neighbors = 9768172
Ave neighs/atom = 657.878
Ave special neighs/atom = 0
Neighbor list builds = 26994
Dangerous builds = 0
 
All done!
Total wall time: 8:52:31
