LAMMPS (16 Mar 2018)
Reading data file ...
  triclinic box = (0 0 0) to (9.208 7.97436 18.376) with tilt (-4.604 0 0)
  1 by 1 by 1 MPI processor grid
  reading atoms ...
  116 atoms
Finding 1-2 1-3 1-4 neighbors ...
  special bond factors lj:   0          0          0         
  special bond factors coul: 0          0          0         
  0 = max # of 1-2 neighbors
  0 = max # of 1-3 neighbors
  0 = max # of 1-4 neighbors
  1 = max # of special neighbors
Replicating atoms ...
  triclinic box = (0 0 0) to (73.664 63.7949 36.752) with tilt (-36.832 0 0)
  1 by 1 by 1 MPI processor grid
  14848 atoms
Finding 1-2 1-3 1-4 neighbors ...
  special bond factors lj:   0          0          0         
  special bond factors coul: 0          0          0         
  0 = max # of 1-2 neighbors
  0 = max # of 1-3 neighbors
  0 = max # of 1-4 neighbors
  1 = max # of special neighbors
  Time spent = 0.00276208 secs
PPPM initialization ...
WARNING: System is not charge neutral, net charge = -0.2048 (../kspace.cpp:302)
  using 12-bit tables for long-range coulomb (../kspace.cpp:321)
  G vector (1/distance) = 0.201681
  grid = 36 50 24
  stencil order = 5
  estimated absolute RMS force accuracy = 0.00105653
  estimated relative force accuracy = 7.33721e-05
  using double precision FFTs
  3d grid and FFT values/proc = 65395 43200
Neighbor list info ...
  update every 1 steps, delay 0 steps, check yes
  max neighbors/atom: 2000, page size: 100000
  master list distance cutoff = 15.3
  ghost atom cutoff = 15.3
  binsize = 7.65, bins = 15 9 5
  3 neighbor lists, perpetual/occasional/extra = 3 0 0
  (1) pair morse, perpetual
      attributes: half, newton on
      pair build: half/bin/newton/tri
      stencil: half/bin/3d/newton/tri
      bin: standard
  (2) pair buck, perpetual, copy from (1)
      attributes: half, newton on
      pair build: copy
      stencil: none
      bin: none
  (3) pair lj/cut/coul/long, perpetual, copy from (1)
      attributes: half, newton on
      pair build: copy
      stencil: none
      bin: none
Setting up Verlet run ...
  Unit style    : metal
  Current step  : 0
  Time step     : 0.001
Per MPI rank memory allocation (min/avg/max) = 145.7 | 145.7 | 145.7 Mbytes
Step Temp Volume Cella Cellb Cellc CellGamma Pxx Pyy Pzz Pxy Pxz Pyz Lx Ly Lz Press PotEng 
       0         1300    172711.88       73.664    73.664001       36.752          120   -188760.73   -188996.11   -260496.93    103.66019   -33.052523    44.214916       73.664    63.794896       36.752   -212751.26   -308813.33 
      10    826.00501    172697.89    73.662011    73.662011    36.751007          120      -176958   -177044.68    -221848.6    144.64256   -24.852522   -374.71029    73.662011    63.793173    36.751007   -191950.43   -307909.52 
      20    1144.4311    172658.16    73.656362    73.656363    36.748189          120   -158646.17   -159277.15   -156861.33    220.78513   -22.722241   -699.84778    73.656362    63.788281    36.748189   -158261.55   -308520.97 
      30    1240.3998    172597.51    73.647736    73.647737    36.743886          120   -111559.36   -112037.16   -78095.649   -205.97441     -856.455   -625.62536    73.647736    63.780811    36.743886   -100564.06   -308696.39 
      40    1020.7755    172523.46    73.637203    73.637204    36.738631          120   -66772.214   -67800.756   -7386.5505   -1711.7092    -874.4566   -482.22761    73.637203    63.771689    36.738631    -47319.84   -308258.62 
      50    1157.2245    172442.79    73.625724    73.625724    36.732903          120   -48882.752   -49959.859   -5222.8027    -363.2987   -163.10233   -801.40595    73.625724    63.761748    36.732903   -34688.471   -308502.02 
      60    1351.6204    172357.42    73.613571    73.613572     36.72684          120    -47191.61   -46508.997   -54549.308   -1504.5349   -1444.3973   -910.01748    73.613571    63.751224     36.72684   -49416.638   -308857.85 
      70    1451.7668    172265.81    73.600527    73.600528    36.720333          120   -44844.236   -46663.046      -114534   -1972.9268   -2112.1328   -561.01951    73.600527    63.739927    36.720333   -68680.427   -309042.56 
      80    1337.1383    172165.67    73.586263    73.586264    36.713216          120   -46681.352   -49419.999   -153255.79   -1934.2721   -1774.2941   -595.96872    73.586263    63.727574    36.713216   -83119.046   -308821.48 
      90    1149.9916    172055.41     73.57055     73.57055    36.705376          120   -45654.483    -45460.36   -160324.81    -1246.237   -2613.6385   -2181.0709     73.57055    63.713966    36.705376   -83813.218   -308460.99 
     100    1199.8036    171935.34    73.553432    73.553433    36.696836          120   -29919.877   -28591.868   -139463.11   -1341.8551   -2238.2924   -2146.9586    73.553432    63.699142    36.696836    -65991.62   -308556.15 
     110    1329.8899    171808.06    73.535278    73.535279    36.687779          120   -12535.461   -12248.642   -105086.66   -2043.1507   -751.98051   -2520.6517    73.535278     63.68342    36.687779   -43290.253   -308800.89 
     120    1352.7487    171676.94    73.516566    73.516567    36.678443          120   -3268.6793    -3291.723   -64468.449   -1559.3255     22.92597   -1549.9034    73.516566    63.667215    36.678443   -23676.284   -308839.64 
     130    1301.3875    171544.96    73.497723    73.497723    36.669042          120   -2412.3139   -1642.5931   -32480.194   -233.88723   -805.26097   -1562.0551    73.497723    63.650896    36.669042   -12178.367   -308737.37 
     140    1270.3195    171414.01    73.479017    73.479017    36.659709          120   -6245.0893   -6360.3344   -20774.265   -639.02854   -1297.7327   -2927.1849    73.479017    63.634696    36.659709   -11126.563   -308673.37 
     150     1292.822    171284.56    73.460515    73.460515    36.650478          120   -12938.568   -12685.551   -36548.473   -1208.3748   -1381.1888   -2085.7948    73.460515    63.618673    36.650478   -20724.197   -308712.73 
     160    1349.2367    171155.74    73.442094    73.442094    36.641288          120   -20265.574    -17915.19   -64248.014   -1640.6065   -1508.1753   -3235.0359    73.442094     63.60272    36.641288   -34142.926   -308819.31 
     170    1368.1127    171026.19    73.423559     73.42356    36.632041          120   -22361.797   -22675.832   -91809.718   -1528.9369   -2648.9675   -3285.7558    73.423559    63.586668    36.632041   -45615.782   -308856.14 
     180    1320.0615    170894.88    73.404764    73.404765    36.622664          120   -20015.022   -20510.559   -107838.88   -97.999934   -2402.1048   -3391.3409    73.404764    63.570391    36.622664   -49454.822   -308767.89 
     190    1298.8693    170761.71    73.385692    73.385693    36.613148          120    -18292.46   -16669.203   -109519.81   -418.09964   -4820.4043   -3140.7657    73.385692    63.553874    36.613148    -48160.49   -308732.12 
     200    1320.9182    170627.32    73.366435    73.366436    36.603541          120   -13944.021   -14547.475   -96999.235   -1450.4734   -4939.1889   -3178.1777    73.366435    63.537197    36.603541   -41830.244   -308778.59 
     210    1345.8095    170492.89    73.347163    73.347164    36.593926          120   -10624.706   -12116.267   -79133.588   -520.25753   -3795.0512   -3500.8539    73.347163    63.520507    36.593926   -33958.187   -308831.22 
     220    1346.9345    170359.79    73.328071    73.328072      36.5844          120   -7409.7725   -8698.5925   -64488.052   -2079.8465   -2452.8465   -4110.6211    73.328071    63.503973      36.5844   -26865.472   -308838.97 
     230    1335.5933    170229.16    73.309324    73.309324    36.575047          120   -8241.4123   -8536.5925    -56234.81   -2230.5955   -1957.3819   -6492.6979    73.309324    63.487737    36.575047   -24337.605   -308824.02 
     240    1337.1546    170101.55       73.291    73.291001    36.565905          120   -8732.6602   -8518.8032   -53146.421   -900.11031   -925.73552   -5973.7355       73.291    63.471869    36.565905   -23465.962   -308835.59 
     250    1340.9478    169977.14    73.273128    73.273128    36.556988          120   -10322.274   -11085.615   -58794.756   -401.12012   -1640.1832   -4929.2727    73.273128    63.456391    36.556988   -26734.215   -308852.41 
     260    1364.9883     169855.6     73.25566    73.255661    36.548274          120   -13874.849   -12796.821   -70533.822   -789.07247   -1767.6233   -4741.9591     73.25566    63.441263    36.548274   -32401.831   -308910.48 
     270    1354.5188    169736.32    73.238507    73.238508    36.539716          120   -16664.396   -13249.474   -79231.675   -709.31037   -2514.6921   -4697.6363    73.238507    63.426409    36.539716   -36381.849   -308904.25 
     280    1346.6175    169618.79      73.2216    73.221601     36.53128          120   -16803.179   -13829.483   -84696.288   -116.19825   -1124.6717   -3613.9739      73.2216    63.411766     36.53128   -38442.983   -308904.55 
     290    1350.4986    169502.83     73.20491     73.20491    36.522953          120   -15460.507   -10643.042   -82971.189   -238.03295   -1281.1194   -3160.4721     73.20491    63.397312    36.522953   -36358.246   -308925.96 
     300    1338.8069    169388.68    73.188473    73.188474    36.514753          120   -11147.923   -8488.0412   -76372.681   -578.34568   -1612.8193   -4127.2382    73.188473    63.383078    36.514753   -32002.882   -308918.15 
     310    1349.5027    169276.83     73.17236    73.172361    36.506714          120   -8323.8544   -6568.7027   -67904.204   -98.899652   -2038.5965   -5352.3378     73.17236    63.369124    36.506714    -27598.92   -308952.55 
     320    1336.7799    169167.72    73.156636    73.156637    36.498869          120   -6265.2916   -4809.1791   -59004.513    550.47134   -1716.2819   -5985.6849    73.156636    63.355506    36.498869   -23359.661    -308941.3 
     330    1333.1002    169061.74    73.141355    73.141356    36.491245          120   -4915.5947   -4137.7477   -52385.887    1116.1205   -1319.4779   -6173.6195    73.141355    63.342272    36.491245   -20479.743   -308946.15 
     340    1342.5427    168959.01    73.126538    73.126539    36.483853          120   -3918.9099   -4058.0483   -53739.639    2369.6391   -1740.2378   -5577.9711    73.126538    63.329441    36.483853   -20572.199   -308976.54 
     350    1345.3213    168859.33    73.112154    73.112155    36.476676          120   -3918.3165   -4986.0626   -55679.997    605.53276   -57.137433   -3827.3446    73.112154    63.316983    36.476676   -21528.125   -308993.84 
     360    1349.9174    168762.28    73.098144    73.098145    36.469687          120   -6935.0561   -4761.9821   -63772.776    165.60228   -1045.3677   -3889.4047    73.098144    63.304851    36.469687   -25156.605   -309015.42 
     370    1344.4076    168667.22    73.084418    73.084419    36.462838          120   -8185.3443   -4495.4618   -70459.572    341.16497   -2127.9663   -3578.1371    73.084418    63.292963    36.462838   -27713.459   -309018.57 
     380    1338.9923     168573.7    73.070907    73.070908    36.456098          120   -6756.1984   -2877.3392   -69464.288    64.030246    -1889.394   -3617.5412    73.070907    63.281263    36.456098   -26365.942   -309020.92 
     390      1338.48    168481.64    73.057604    73.057604    36.449461          120   -5144.5594   -2939.6567   -65021.583   -606.87613    -1423.282   -4306.8107    73.057604    63.269742    36.449461     -24368.6   -309033.03 
     400    1320.8283    168391.15    73.044521    73.044522    36.442933          120   -2052.6357    111.15982   -58895.454    -716.4511    209.72313   -3327.6715    73.044521    63.258412    36.442933   -20278.976      -309010 
     410    1335.4557     168302.5    73.031701    73.031702    36.436537          120    970.52125    3537.2766   -53063.242    1.3349599    -373.2816   -2791.6534    73.031701    63.247309    36.436537   -16185.148   -309049.74 
     420    1329.2394       168216    73.019188    73.019188    36.430294          120    4114.7642    4618.4795   -47615.404     387.9515    439.94226   -3157.2083    73.019188    63.236472    36.430294    -12960.72    -309049.2 
     430    1330.5181    168131.79    73.007001    73.007002    36.424214          120    3143.8423    3466.1475   -48659.581    226.06605   -184.76546   -982.39175    73.007001    63.225918    36.424214    -14016.53   -309062.56 
     440    1335.7693    168049.58      72.9951      72.9951    36.418276          120    1289.7451    3050.7889   -50946.524    40.797155    86.162639   -1699.8205      72.9951    63.215611    36.418276    -15535.33   -309084.01 
     450    1348.5109    167968.96    72.983425    72.983426    36.412452          120    523.87183    2222.5274   -56411.389    51.421297   -44.605612   -1959.1488    72.983425    63.205501    36.412452    -17888.33   -309119.77 
     460      1324.22    167889.54     72.97192     72.97192    36.406712          120    688.13964    2847.3465   -58072.334   -115.41155   -1107.2256   -935.34249     72.97192    63.195537    36.406712   -18178.949   -309084.71 
     470      1328.61    167811.12    72.960557    72.960558    36.401042          120    3048.2913    5796.7744   -57896.482   -896.44176   -495.95248   -1850.3941    72.960557    63.185696    36.401042   -16350.472   -309104.84 
     480    1329.8824    167733.76    72.949343    72.949344    36.395448          120    5565.0733    7008.9576   -56382.678   -1150.1639    41.506345   -3001.3424    72.949343    63.175985    36.395448   -14602.882   -309118.53 
     490    1310.5845    167657.56    72.938296    72.938296    36.389936          120    6866.5043    7501.8896   -53329.327   -551.50192   -723.17097   -3286.1979    72.938296    63.166418    36.389936   -12986.978    -309091.5 
     500    1326.0915    167582.63    72.927428    72.927428    36.384514          120    7475.2288     10070.95   -51257.257   -218.11595   -695.50853    -4215.265    72.927428    63.157006    36.384514   -11237.026   -309132.28 
     510    1313.1944    167509.06    72.916754    72.916754    36.379188          120    8282.8879    10951.147   -47528.609    -242.6498    510.94381   -5025.2093    72.916754    63.147762    36.379188   -9431.5244   -309116.86 
     520    1320.9387    167436.95     72.90629     72.90629    36.373968          120    8636.0693    11481.607   -45430.364      -46.788    618.73809   -3338.4481     72.90629    63.138699    36.373968   -8437.5627   -309140.92 
     530     1321.835     167366.3    72.896035    72.896035    36.368851          120    7547.9334    11485.338    -46278.84   -591.31905    434.78316    -2839.982    72.896035    63.129818    36.368851   -9081.8561   -309152.67 
     540    1313.0531    167296.94    72.885963    72.885964    36.363826          120    7044.0922    10415.735   -47912.769   -144.31746    620.94644   -2742.8698    72.885963    63.121096    36.363826   -10150.981   -309144.77 
     550    1311.3597    167228.69    72.876049     72.87605     36.35888          120    9750.3799    11647.812   -48353.974    26.408659    1127.0478   -1047.6339    72.876049    63.112511     36.35888   -8985.2607   -309150.81 
     560    1313.6901    167161.56    72.866297    72.866297    36.354015          120    10867.784    13009.161   -47819.325   -333.70815    -441.0863   -1699.1111    72.866297    63.104065    36.354015   -7980.7932   -309163.14 
     570    1314.7563     167095.6    72.856712    72.856713    36.349233          120    11627.335    14291.208   -47766.773   -43.823061   -677.72207   -3304.5062    72.856712    63.095764    36.349233   -7282.7435    -309174.7 
     580    1319.3866    167030.84    72.847299    72.847299    36.344536          120    11592.108    13127.428   -45632.132    316.17634   -2062.4908   -2236.6777    72.847299    63.087612    36.344536   -6970.8653   -309192.48 
     590    1314.5437    166967.27    72.838056    72.838056    36.339925          120    12017.518     14081.68   -44479.674    17.077979   -477.88468   -3661.0717    72.838056    63.079607    36.339925   -6126.8251    -309191.6 
     600     1308.776    166904.92    72.828988    72.828989    36.335401          120     12736.57    14896.822   -43163.095    57.525018   -1534.2318    -4673.781    72.828988    63.071755    36.335401   -5176.5676   -309188.87 
     610    1313.5577    166843.85    72.820104    72.820105    36.330969          120    14234.422    13690.466   -40471.459   -521.92297   -2206.3139    -4109.675    72.820104    63.064061    36.330969   -4182.1902   -309205.66 
     620    1310.6423    166784.09     72.81141     72.81141    36.326631          120    14401.492    13467.731   -41365.345   -458.40083   -1464.8769    -3404.096     72.81141    63.056531    36.326631    -4498.707   -309208.55 
     630    1313.3524    166725.58    72.802894    72.802895    36.322382          120     16412.41    14064.139   -41648.635    621.85612   -1114.5014   -1568.2604    72.802894    63.049156    36.322382   -3724.0286   -309221.54 
     640    1324.5221    166668.36    72.794564    72.794564    36.318226          120    17624.882    16180.301   -40016.723    1424.6124     611.6392   -685.12906    72.794564    63.041942    36.318226   -2070.5134   -309251.08 
     650    1303.2167    166612.56    72.786439    72.786439    36.314172          120    17206.074    16897.316   -38690.067    1406.0318    2018.5965   -3179.1995    72.786439    63.034905    36.314172   -1528.8925   -309217.53 
     660    1303.8434    166558.15    72.778515    72.778515    36.310219          120    16626.247    15514.078   -40478.478   -156.68591    2569.9647   -2829.8948    72.778515    63.028043    36.310219   -2779.3841   -309226.74 
     670    1318.5252    166504.99    72.770772    72.770772    36.306356          120    17252.647    16305.668   -40720.143    474.04795    2208.4746   -2836.9815    72.770772    63.021338    36.306356   -2387.2761   -309262.89 
     680    1297.2191    166453.06    72.763206    72.763206    36.302581          120    15919.223     16984.55   -39894.467    113.48552    1521.8879    -3792.676    72.763206    63.014785    36.302581    -2330.231   -309229.46 
     690    1307.9295    166402.33    72.755812    72.755813    36.298892          120    16273.576    16123.662   -37303.679    1041.5756    1805.5407   -3081.1566    72.755812    63.008382    36.298892   -1635.4802   -309257.61 
     700    1302.3326    166352.82    72.748597    72.748597    36.295292          120    17120.351    15395.377   -36459.005    763.27839    487.20976   -4188.1625    72.748597    63.002133    36.295292   -1314.4257   -309253.99 
     710    1296.9162    166304.54    72.741558    72.741559    36.291781          120    17425.687    15517.444   -38047.393    432.37593    738.92058   -4276.3654    72.741558    62.996038    36.291781   -1701.4208   -309249.55 
     720    1294.2432    166257.41    72.734686    72.734686    36.288352          120    15919.571    17387.941   -37506.575    474.93139    926.07977   -3947.2786    72.734686    62.990086    36.288352   -1399.6874   -309249.94 
     730    1306.9666    166211.43    72.727979     72.72798    36.285006          120    16711.527    18949.521   -35422.657    343.18513    610.68811   -4143.0893    72.727979    62.984278    36.285006    79.463258   -309279.96 
     740    1293.4002    166166.71    72.721456    72.721457    36.281752          120    18976.463    19253.551   -34905.424    255.36249     662.3533   -3419.7299    72.721456    62.978629    36.281752    1108.1967   -309259.99 
     750    1304.3683    166123.33    72.715127    72.715128    36.278594          120    19491.804    20158.234   -37518.459    34.601047    2587.6529   -1666.2346    72.715127    62.973148    36.278594    710.52636   -309286.25 
     760    1293.7498    166081.24    72.708986    72.708986     36.27553          120    20519.383    20101.746   -36850.434    1083.0567    3799.3064   -1182.5531    72.708986    62.967829     36.27553    1256.8985   -309271.04 
     770    1302.4813    166040.43     72.70303    72.703031    36.272559          120    21019.657    19786.716   -35556.494     1708.377    3346.2336   -2649.4468     72.70303    62.962672    36.272559    1749.9594   -309292.77 
     780    1297.8717    166000.95    72.697268    72.697268    36.269684          120    21518.038    21575.452   -34855.926    1925.7269    942.35565   -2437.2039    72.697268    62.957681    36.269684    2745.8547   -309288.91 
     790    1294.1574    165962.86    72.691707    72.691707    36.266909          120    21531.138    21875.654   -35513.618    1379.5274    898.14052   -2723.8664    72.691707    62.952865    36.266909    2631.0579   -309286.22 
     800    1301.2194    165926.09    72.686338    72.686339    36.264231          120    20519.009        20935   -36531.669    525.31561    398.42299   -3371.6179    72.686338    62.948216    36.264231    1640.7799   -309304.05 
     810    1296.4887    165890.51    72.681142    72.681143    36.261638          120    18541.047    21000.516   -34495.308   -161.49034   -1049.9005   -1123.1095    72.681142    62.943716    36.261638     1682.085   -309298.69 
     820    1280.8531    165856.09    72.676116    72.676116    36.259131          120    23073.968    21094.798   -32820.996   -156.60372    465.99923   -1609.9883    72.676116    62.939363    36.259131    3782.5901   -309272.15 
     830    1303.9648    165823.03    72.671286    72.671287    36.256721          120    25904.765    22391.401   -31785.614    487.93409    964.66185   -1699.7862    72.671286     62.93518    36.256721    5503.5173   -309320.34 
     840    1296.2841     165791.5    72.666679    72.666679    36.254422          120     27250.91    23617.982    -29591.28    855.18948    1689.6109   -1372.2457    72.666679     62.93119    36.254422    7092.5373   -309309.05 
     850    1298.0957    165761.62    72.662313    72.662314    36.252244          120      25042.8    23300.591   -30430.053    787.70965    1961.8069   -1995.6574    72.662313     62.92741    36.252244    5971.1129    -309315.7 
     860    1292.1875    165733.24    72.658166    72.658167    36.250175          120    23959.274    22480.444   -33761.237   -485.24165    1362.4461   -2202.4062    72.658166    62.923818    36.250175    4226.1605   -309306.74 
     870    1294.1641    165706.11    72.654202    72.654203    36.248198          120    24456.172    23470.149   -33909.493    113.56324    476.23056   -2307.0397    72.654202    62.920386    36.248198    4672.2761    -309313.5 
     880    1287.4437    165680.22    72.650418    72.650419     36.24631          120    24785.518    23153.263   -35018.766    768.11683    102.03027   -2748.6498    72.650418    62.917108     36.24631    4306.6715    -309303.1 
     890    1306.2204    165655.52    72.646807    72.646807    36.244508          120    24211.463    21032.671   -32413.606    197.69123    480.38984   -2926.7699    72.646807    62.913981    36.244508    4276.8425   -309340.73 
     900    1285.0507    165631.98    72.643366    72.643367    36.242792          120    24103.541    23297.338   -30988.555    92.846354   -631.47186   -1132.2266    72.643366    62.911001    36.242792    5470.7745   -309302.33 
     910    1292.0727    165609.65    72.640101    72.640102    36.241163          120    23894.968    22844.136   -33980.421    505.14934    650.26061   -1562.9657    72.640101    62.908174    36.241163    4252.8944    -309317.3 
     920    1292.3968     165588.4    72.636995    72.636995    36.239613          120    22972.316    24644.393   -34133.073   -111.28426    785.90321   -2569.5984    72.636995    62.905483    36.239613    4494.5454   -309319.14 
     930    1292.8662    165568.25    72.634047    72.634048    36.238142          120    22251.548    25356.226   -30787.313    421.92098   -265.00776   -3687.8575    72.634047    62.902931    36.238142    5606.8203   -309321.09 
     940    1289.2166    165549.25     72.63127     72.63127    36.236756          120    22383.847    26134.626   -31043.973    723.32114   -711.57539   -4536.6871     72.63127    62.900525    36.236756     5824.833   -309314.55 
     950    1299.9239    165531.43    72.628663    72.628664    36.235456          120    25274.002    25923.395   -31405.864    518.72061   -370.09861    -1630.611    72.628663    62.898268    36.235456    6597.1775   -309335.58 
     960    1306.0547    165514.85    72.626238    72.626238    36.234246          120    26639.028    27697.528   -29878.376     810.4428   -834.67277   -2567.2776    72.626238    62.896168    36.234246    8152.7266   -309347.48 
     970    1290.0843    165499.65    72.624014    72.624015    36.233137          120    25516.554    25837.583   -28711.479    883.01413   -36.651483   -3501.1592    72.624014    62.894242    36.233137    7547.5529   -309316.13 
     980    1298.4581    165485.73    72.621978    72.621979    36.232121          120    24126.478    25561.611   -30007.514    2022.1673   -1133.5183   -1817.8424    72.621978    62.892479    36.232121    6560.1917   -309333.45 
     990    1294.0515    165472.94    72.620107    72.620108    36.231187          120    24090.808    25482.519   -31214.996    1782.0012   -457.87944   -1270.6427    72.620107    62.890858    36.231187    6119.4436   -309324.34 
    1000    1294.0082    165461.21    72.618392    72.618392    36.230331          120    25469.308    26353.177   -29162.265    939.86142   -359.58266   -319.56433    72.618392    62.889373    36.230331    7553.4068   -309323.31 
Loop time of 320.07 on 1 procs for 1000 steps with 14848 atoms

Performance: 0.270 ns/day, 88.908 hours/ns, 3.124 timesteps/s
100.0% CPU use with 1 MPI tasks x no OpenMP threads

MPI task timing breakdown:
Section |  min time  |  avg time  |  max time  |%varavg| %total
---------------------------------------------------------------
Pair    | 230.99     | 230.99     | 230.99     |   0.0 | 72.17
Bond    | 0.00016403 | 0.00016403 | 0.00016403 |   0.0 |  0.00
Kspace  | 10.768     | 10.768     | 10.768     |   0.0 |  3.36
Neigh   | 71.657     | 71.657     | 71.657     |   0.0 | 22.39
Comm    | 0.43172    | 0.43172    | 0.43172    |   0.0 |  0.13
Output  | 0.010462   | 0.010462   | 0.010462   |   0.0 |  0.00
Modify  | 6.1131     | 6.1131     | 6.1131     |   0.0 |  1.91
Other   |            | 0.1009     |            |       |  0.03

Nlocal:    14848 ave 14848 max 14848 min
Histogram: 1 0 0 0 0 0 0 0 0 0
Nghost:    46538 ave 46538 max 46538 min
Histogram: 1 0 0 0 0 0 0 0 0 0
Neighs:    9.94399e+06 ave 9.94399e+06 max 9.94399e+06 min
Histogram: 1 0 0 0 0 0 0 0 0 0

Total # of neighbors = 9943991
Ave neighs/atom = 669.719
Ave special neighs/atom = 0
Neighbor list builds = 263
Dangerous builds = 0
PPPM initialization ...
  using 12-bit tables for long-range coulomb (../kspace.cpp:321)
  G vector (1/distance) = 0.202383
  grid = 36 50 24
  stencil order = 5
  estimated absolute RMS force accuracy = 0.00101149
  estimated relative force accuracy = 7.0244e-05
  using double precision FFTs
  3d grid and FFT values/proc = 65395 43200
Setting up Verlet run ...
  Unit style    : metal
  Current step  : 0
  Time step     : 0.001
Per MPI rank memory allocation (min/avg/max) = 150.3 | 150.3 | 150.3 Mbytes
Step Temp Volume Cella Cellb Cellc CellGamma Pxx Pyy Pzz Pxy Pxz Pyz Lx Ly Lz Press PotEng 
       0    1294.0082    165461.21    72.618392    72.618392    36.230331          120    25476.707     26360.96   -29160.731    939.95739   -359.59697   -319.43149    72.618392    62.889373    36.230331    7558.9786   -309323.21 
  100000    1300.3991    168378.93    73.042755    73.042756    36.442052          120    14027.305    16721.569   -38142.418   -1629.3407    102.52666   -474.55917    73.042755    63.256882    36.442052   -2464.5146   -309494.53 
Loop time of 31255 on 1 procs for 100000 steps with 14848 atoms

Performance: 0.276 ns/day, 86.819 hours/ns, 3.199 timesteps/s
100.0% CPU use with 1 MPI tasks x no OpenMP threads

MPI task timing breakdown:
Section |  min time  |  avg time  |  max time  |%varavg| %total
---------------------------------------------------------------
Pair    | 22411      | 22411      | 22411      |   0.0 | 71.70
Bond    | 0.017145   | 0.017145   | 0.017145   |   0.0 |  0.00
Kspace  | 1076.3     | 1076.3     | 1076.3     |   0.0 |  3.44
Neigh   | 7102.9     | 7102.9     | 7102.9     |   0.0 | 22.73
Comm    | 44.409     | 44.409     | 44.409     |   0.0 |  0.14
Output  | 9.9182e-05 | 9.9182e-05 | 9.9182e-05 |   0.0 |  0.00
Modify  | 610.83     | 610.83     | 610.83     |   0.0 |  1.95
Other   |            | 10.01      |            |       |  0.03

Nlocal:    14848 ave 14848 max 14848 min
Histogram: 1 0 0 0 0 0 0 0 0 0
Nghost:    46175 ave 46175 max 46175 min
Histogram: 1 0 0 0 0 0 0 0 0 0
Neighs:    9.76969e+06 ave 9.76969e+06 max 9.76969e+06 min
Histogram: 1 0 0 0 0 0 0 0 0 0

Total # of neighbors = 9769694
Ave neighs/atom = 657.98
Ave special neighs/atom = 0
Neighbor list builds = 25987
Dangerous builds = 0
 
All done!
Total wall time: 8:46:16
