LAMMPS (16 Mar 2018)
Reading data file ...
  triclinic box = (0 0 0) to (9.208 7.97436 18.376) with tilt (-4.604 0 0)
  1 by 1 by 1 MPI processor grid
  reading atoms ...
  116 atoms
Finding 1-2 1-3 1-4 neighbors ...
  special bond factors lj:   0          0          0         
  special bond factors coul: 0          0          0         
  0 = max # of 1-2 neighbors
  0 = max # of 1-3 neighbors
  0 = max # of 1-4 neighbors
  1 = max # of special neighbors
Replicating atoms ...
  triclinic box = (0 0 0) to (73.664 63.7949 36.752) with tilt (-36.832 0 0)
  1 by 1 by 1 MPI processor grid
  14848 atoms
Finding 1-2 1-3 1-4 neighbors ...
  special bond factors lj:   0          0          0         
  special bond factors coul: 0          0          0         
  0 = max # of 1-2 neighbors
  0 = max # of 1-3 neighbors
  0 = max # of 1-4 neighbors
  1 = max # of special neighbors
  Time spent = 0.00447702 secs
PPPM initialization ...
WARNING: System is not charge neutral, net charge = -0.2048 (../kspace.cpp:302)
  using 12-bit tables for long-range coulomb (../kspace.cpp:321)
  G vector (1/distance) = 0.201681
  grid = 36 50 24
  stencil order = 5
  estimated absolute RMS force accuracy = 0.00105653
  estimated relative force accuracy = 7.33721e-05
  using double precision FFTs
  3d grid and FFT values/proc = 65395 43200
Neighbor list info ...
  update every 1 steps, delay 0 steps, check yes
  max neighbors/atom: 2000, page size: 100000
  master list distance cutoff = 15.3
  ghost atom cutoff = 15.3
  binsize = 7.65, bins = 15 9 5
  3 neighbor lists, perpetual/occasional/extra = 3 0 0
  (1) pair morse, perpetual
      attributes: half, newton on
      pair build: half/bin/newton/tri
      stencil: half/bin/3d/newton/tri
      bin: standard
  (2) pair buck, perpetual, copy from (1)
      attributes: half, newton on
      pair build: copy
      stencil: none
      bin: none
  (3) pair lj/cut/coul/long, perpetual, copy from (1)
      attributes: half, newton on
      pair build: copy
      stencil: none
      bin: none
Setting up Verlet run ...
  Unit style    : metal
  Current step  : 0
  Time step     : 0.001
Per MPI rank memory allocation (min/avg/max) = 145.7 | 145.7 | 145.7 Mbytes
Step Temp Volume Cella Cellb Cellc CellGamma Pxx Pyy Pzz Pxy Pxz Pyz Lx Ly Lz Press PotEng 
       0         1900    172711.88       73.664    73.664001       36.752          120   -181571.37   -181918.94   -253399.94    150.90338   -48.305524    64.622557       73.664    63.794896       36.752   -205630.08   -308813.33 
      10    1100.3839    172702.73    73.662699    73.662699    36.751351          120   -161630.07   -161707.91   -205587.21     105.2711  0.049206839   -470.26351    73.662699    63.793769    36.751351    -176308.4   -307277.68 
      20    1426.6774    172677.32    73.659086    73.659087    36.749549          120   -137569.02   -138883.15   -140342.58    397.73041    284.33831   -731.07213    73.659086    63.790641    36.749549   -138931.58   -307895.62 
      30    1547.3326    172639.34    73.653685    73.653686    36.746854          120   -88226.679   -88962.819   -63961.061   -317.61136   -878.13761   -664.81944    73.653685    63.785963    36.746854   -80383.519   -308106.65 
      40    1338.6261    172593.95     73.64723     73.64723    36.743633          120    -48974.67   -50222.982   -2065.7093   -1928.5631   -488.26807   -519.64703     73.64723    63.780372    36.743633   -33754.454   -307680.18 
      50     1488.485    172545.19    73.640294    73.640295    36.740173          120   -37940.964   -38604.487   -8114.9787   -592.89704    303.17559   -993.75286    73.640294    63.774366    36.740173   -28220.143    -307939.7 
      60     1653.059    172493.73    73.632972    73.632973     36.73652          120   -38949.906   -38121.223   -55692.243   -1439.4156    -1276.393   -820.93157    73.632972    63.768025     36.73652   -44254.458   -308226.47 
      70    1739.0972    172438.29    73.625083    73.625083    36.732584          120   -37362.373   -40225.507   -111243.45   -1937.3976   -1942.0801    -340.5644    73.625083    63.761193    36.732584   -62943.775   -308367.81 
      80    1631.8612    172377.27    73.616397    73.616397     36.72825          120   -40555.555   -44009.983   -145301.45   -1550.0667   -1287.1247   -698.24492    73.616397     63.75367     36.72825   -76622.329   -308138.36 
      90    1474.0708    172309.52    73.606752    73.606752    36.723438          120   -39600.691   -40174.767   -150006.37   -647.30702   -2537.6757   -2136.9363    73.606752    63.745318    36.723438   -76593.942   -307809.91 
     100    1537.2033    172235.19    73.596166    73.596167    36.718157          120   -24456.502   -23730.536   -129810.14   -1456.3915   -2002.4511   -2682.3822    73.596166     63.73615    36.718157   -59332.394   -307906.82 
     110    1645.7106    172155.82     73.58486     73.58486    36.712516          120   -8472.0488   -8841.6726   -98576.861   -1810.3827   -965.47007   -3125.3587     73.58486    63.726358    36.712516   -38630.194   -308089.18 
     120    1674.5197    172073.37     73.57311     73.57311    36.706654          120     -491.968   -2014.5579   -61215.203   -1170.3003    354.42258   -2026.9305     73.57311    63.716183    36.706654   -21240.576   -308118.15 
     130     1641.094     171989.5    73.561155    73.561156    36.700689          120    1008.0266   -646.33489   -32928.729    243.66876   -9.8879029   -2118.5171    73.561155     63.70583    36.700689   -10855.679    -308028.1 
     140    1623.6985    171905.27    73.549144    73.549145    36.694697          120   -2386.4017   -4669.3237     -22843.8   -272.87855    -1403.342    -2746.744    73.549144    63.695428    36.694697   -9966.5085   -307968.45 
     150    1650.4002    171820.84    73.537101    73.537102    36.688688          120   -9047.9587   -10794.878   -36186.639   -1363.8754   -1677.3042   -1537.2619    73.537101    63.684998    36.688688   -18676.492   -307993.71 
     160    1706.8845    171735.58    73.524936    73.524936    36.682619          120   -16477.031   -14994.471   -61560.224   -592.40779   -1351.3099   -2881.1532    73.524936    63.674463    36.682619   -31010.575   -308077.08 
     170    1718.8923    171648.52     73.51251     73.51251    36.676419          120   -16502.762   -18775.965   -88076.215    -800.5935   -3926.0142   -3298.1739     73.51251    63.663701    36.676419   -41118.314   -308075.37 
     180    1691.4676    171558.93    73.499718    73.499718    36.670037          120   -15027.932   -17505.008   -101344.58    710.75825   -3863.6076   -3600.0268    73.499718    63.652623    36.670037   -44625.839   -308000.14 
     190    1675.0086    171466.63    73.486534    73.486534     36.66346          120    -14906.24   -12705.439   -104353.07    1170.4964    -4632.266   -3422.5508    73.486534    63.641206     36.66346   -43988.249   -307944.98 
     200    1693.8148    171371.85    73.472992    73.472992    36.656703          120   -10662.469   -12456.473   -94106.352   -358.52937    -6208.049   -4300.0851    73.472992    63.629478    36.656703   -39075.098   -307955.93 
     210    1718.2908    171275.22    73.459179    73.459179    36.649812          120    -7118.191   -9395.1879   -79963.145    1083.0206   -3972.5324   -3674.4858    73.459179    63.617516    36.649812   -32158.841   -307978.63 
     220    1726.7454    171177.53     73.44521     73.44521    36.642843          120   -4273.8154   -4789.1108   -64911.888   -846.91951   -2486.0671   -2940.5351     73.44521    63.605418    36.642843   -24658.271    -307969.6 
     230    1734.5624    171079.58    73.431198    73.431199    36.635852          120    -3963.523   -3882.7185    -56508.36    -1168.792   -2217.6197   -4398.2945    73.431198    63.593284    36.635852   -21451.534   -307958.46 
     240    1730.6795    170981.84    73.417213    73.417213    36.628874          120   -3499.2817     -6006.63   -52103.564   -669.93118   -1735.6904   -5201.1354    73.417213    63.581172    36.628874   -20536.492   -307925.57 
     250    1755.5425    170884.54    73.403283    73.403284    36.621925          120   -4535.9283   -5767.2398   -57227.897   -422.96191   -1396.8005   -5058.8315    73.403283    63.569109    36.621925   -22510.355   -307948.36 
     260    1793.6068    170787.63    73.389405    73.389406    36.615001          120   -5963.1028   -7835.9766   -65567.699    93.533738   -2363.6904   -4059.9009    73.389405     63.55709    36.615001   -26455.593   -307998.64 
     270    1801.7714    170690.92     73.37555    73.375551    36.608088          120   -8643.8494   -10041.357   -75113.775   -332.14934   -2158.7447   -4424.7368     73.37555    63.545091    36.608088   -31266.327   -307991.72 
     280    1796.8107    170594.13    73.361678    73.361679    36.601167          120   -12477.565   -11578.374   -82000.762   -408.09961   -3277.6747    -1703.284    73.361678    63.533078    36.601167   -35352.234   -307960.33 
     290    1784.1747    170497.08    73.347763    73.347764    36.594225          120   -10455.009   -9625.3105   -83329.211   -1412.0572   -2397.2031   -758.79368    73.347763    63.521027    36.594225   -34469.844   -307914.13 
     300    1811.6809    170399.98    73.333837    73.333837    36.587277          120   -6904.9271   -6265.0252   -74699.733   -1629.2901   -3337.8131   -2732.9754    73.333837    63.508966    36.587277   -29289.895   -307945.01 
     310    1827.7363    170303.41     73.31998    73.319981    36.580364          120   -3923.2868   -2931.2061   -65199.411    78.787341   -2892.7544   -732.67562     73.31998    63.496966    36.580364   -24017.968   -307953.73 
     320    1832.2436    170207.91    73.306274    73.306274    36.573525          120   -1259.4049   -1294.7175   -58374.412    1488.5618   -1719.6693   -1283.2946    73.306274    63.485096    36.573525   -20309.511   -307941.13 
     330    1824.5395    170113.93    73.292779    73.292779    36.566792          120    1805.7894   -884.27601   -51079.002    1273.8167    -1385.051   -1436.4702    73.292779    63.473409    36.566792   -16719.163   -307903.94 
     340    1844.2211    170021.78    73.279542    73.279542    36.560188          120    223.51518   -409.02835   -50521.636    413.38695   -2221.1891   -1517.5572    73.279542    63.461945    36.560188   -16902.383   -307921.03 
     350    1836.3393    169931.52    73.266572    73.266573    36.553718          120    1766.4843    951.64059   -52393.818    403.15948   -1580.7724   -3162.4285    73.266572    63.450713    36.553718   -16558.564   -307885.55 
     360    1856.8942    169843.17    73.253872    73.253873    36.547381          120    4191.8545    2426.4882   -58792.525   -330.09679   -1361.7192   -2646.7321    73.253872    63.439715    36.547381   -17391.394    -307904.7 
     370     1862.068    169756.66    73.241433    73.241434    36.541176          120    3452.1449    1037.5098   -63034.415    1875.7013   -558.59524   -2131.7338    73.241433    63.428942    36.541176    -19514.92   -307894.16 
     380    1866.3125    169671.82    73.229231    73.229231    36.535087          120    1961.3218    2230.8941   -65446.452    1677.1018   -641.09456   -2028.3024    73.229231    63.418375    36.535087   -20418.079   -307883.47 
     390     1861.899    169588.56     73.21725     73.21725     36.52911          120    2406.2662    3830.5223   -64439.083    666.75182   -1319.9426   -1813.6863     73.21725    63.407999     36.52911   -19400.765   -307857.07 
     400    1860.6687    169506.93      73.2055    73.205501    36.523248          120    2926.6104    7025.0938   -59940.236    162.56676    175.85615   -349.05619      73.2055    63.397823    36.523248   -16662.844   -307835.69 
     410    1887.8815    169427.11    73.194009    73.194009    36.517515          120    5486.3911      8150.07   -55828.769   -451.82908   -1487.8268    206.52991    73.194009    63.387872    36.517515   -14064.103   -307869.78 
     420    1878.9809    169349.32    73.182804    73.182804    36.511924          120    9001.1263    10412.916   -49476.901    86.150164   -2669.4258   -1163.6138    73.182804    63.378168    36.511924   -10020.953   -307836.57 
     430    1884.1028    169273.75    73.171917    73.171917    36.506493          120    10094.103    9206.0144   -48302.854    972.17375   -3731.1721   -1547.8813    73.171917    63.368739    36.506493   -9667.5788   -307829.97 
     440    1907.7415    169200.38    73.161344    73.161345    36.501218          120    8885.9003    8320.9408   -47023.204     864.3519   -4477.6233   -955.35971    73.161344    63.359583    36.501218   -9938.7876   -307859.62 
     450     1899.086     169129.1    73.151069     73.15107    36.496092          120    9655.5596    10352.226   -48749.964    563.03505   -2965.3934   -873.07452    73.151069    63.350685    36.496092   -9580.7263   -307827.29 
     460    1928.5415    169059.82    73.141079    73.141079    36.491107          120    10124.507     9570.794   -51163.227    1.3862532   -1798.0165   -464.36041    73.141079    63.342033    36.491107   -10489.309   -307870.16 
     470    1925.8546    168992.36     73.13135     73.13135    36.486253          120    10307.868     10106.42   -54295.681    134.69791   -1307.7645   -266.99605     73.13135    63.333607    36.486253   -11293.798    -307852.7 
     480     1918.446    168926.57    73.121857    73.121858    36.481517          120    10638.629     10019.14   -57403.671   -620.33423   -1216.5412   -2979.5178    73.121857    63.325387    36.481517   -12248.634   -307827.36 
     490    1927.5606    168862.28     73.11258     73.11258    36.476889          120    11595.835    10580.514   -55905.135    55.257476   -1015.2777   -2911.0633     73.11258    63.317352    36.476889   -11242.929   -307835.22 
     500     1917.769    168799.48    73.103515    73.103516    36.472366          120    11318.962    12481.746    -50652.29    360.10682    147.84066   -1250.3285    73.103515    63.309502    36.472366    -8950.527   -307807.21 
     510    1926.1201    168738.24    73.094674    73.094675    36.467955          120    13333.256     12274.78   -48990.915    488.08916   -1367.9617   -965.62278    73.094674    63.301846    36.467955   -7794.2931   -307814.82 
     520    1920.3948     168678.6    73.086061    73.086061    36.463658          120    14957.861    13606.095   -45846.092   -265.99496   -1425.6956   -847.47279    73.086061    63.294386    36.463658   -5760.7119   -307796.61 
     530    1919.4189    168620.57    73.077679     73.07768    36.459476          120     14524.89    13590.593   -46798.914     489.5128   -207.83576    1306.6553    73.077679    63.287127    36.459476   -6227.8103   -307789.12 
     540    1921.4936    168564.08    73.069517    73.069518    36.455404          120    13501.842    14712.449   -44885.993    1565.6844   -212.79668    187.11958    73.069517    63.280059    36.455404    -5557.234    -307786.8 
     550    1938.8696    168509.05    73.061565    73.061565    36.451437          120    16837.709    13587.021   -45586.853    2287.2928   -805.76885   -594.33587    73.061565    63.273172    36.451437   -5054.0409   -307815.96 
     560    1941.5332    168455.42    73.053814    73.053814     36.44757          120    16079.249    15435.958   -45121.359    2450.1173   -132.03381    1484.6906    73.053814    63.266459     36.44757    -4535.384   -307819.26 
     570    1934.7346    168403.15    73.046256    73.046257    36.443799          120    14565.972    18276.641   -47813.021    2444.9061   -1454.1846   -82.018807    73.046256    63.259914    36.443799   -4990.1359   -307804.67 
     580    1946.6401    168352.12    73.038878    73.038878    36.440118          120    14731.733    19192.634    -48569.67     599.7098   -4249.2878   -846.40125    73.038878    63.253524    36.440118   -4881.7679   -307827.89 
     590    1939.2185    168302.28    73.031669     73.03167    36.436521          120     16595.54    19122.431   -47397.183   -208.89506   -4152.1114   -2017.1491    73.031669    63.247281    36.436521   -3893.0707   -307815.62 
     600    1933.6115    168253.62     73.02463     73.02463    36.433009          120    18296.847    19501.785   -46769.471   -25.179572   -2715.7143   -64.207887     73.02463    63.241185    36.433009   -2990.2799   -307807.63 
     610    1937.3889    168206.14    73.017761    73.017761    36.429582          120    17067.234    19928.665   -43652.132    363.82716   -2396.3855    133.58259    73.017761    63.235236    36.429582   -2218.7445   -307819.97 
     620    1950.6588    168159.83    73.011059     73.01106    36.426239          120    17611.666    17778.208   -42924.066    188.71042   -795.34692   -576.35658    73.011059    63.229432    36.426239   -2511.3974   -307852.25 
     630    1930.1565    168114.61    73.004513    73.004514    36.422973          120     18768.99    18646.591   -45710.813    17.902535   -2083.1941    616.15551    73.004513    63.223764    36.422973   -2765.0775   -307821.25 
     640    1943.6007     168070.4    72.998114    72.998115     36.41978          120    18272.202    19267.365   -43841.786    519.88879   -1626.3175    1729.2014    72.998114    63.218222     36.41978   -2100.7396   -307856.59 
     650    1934.0947    168027.21     72.99186     72.99186     36.41666          120    20453.551      21733.4   -45061.802   -358.97631    336.91983     624.7253     72.99186    63.212806     36.41666   -958.28372   -307848.89 
     660    1928.3796    167985.06    72.985756    72.985757    36.413615          120    21337.446     21808.04   -41645.261   -771.17501    141.14862    250.55146    72.985756     63.20752    36.413615    500.07513   -307850.11 
     670    1924.9011    167944.03    72.979814    72.979815     36.41065          120    23058.099    21654.471   -39125.268   -1897.7426   -1101.0102   -71.532627    72.979814    63.202374     36.41065    1862.4341   -307854.81 
     680    1936.6859    167904.15    72.974037    72.974038    36.407768          120    21519.284    21718.902   -41177.339    260.45731   -2669.5127   -597.33162    72.974037    63.197371    36.407768     686.9488   -307891.41 
     690    1915.6718    167865.31    72.968409     72.96841     36.40496          120    22926.433    21474.189    -41467.54   -594.36079   -3565.7844   -2.1943379    72.968409    63.192497     36.40496    977.69406   -307865.45 
     700    1927.9119    167827.47    72.962927    72.962927    36.402225          120    22548.908    21375.733   -40910.996     81.72129    -2694.672    1873.1027    72.962927    63.187749    36.402225    1004.5487   -307902.56 
     710    1926.3872    167790.59    72.957581    72.957582    36.399558          120    24000.869    22028.264   -42737.093    1243.3414   -1467.3369    2968.7907    72.957581    63.183119    36.399558    1097.3467   -307913.98 
     720    1936.7469    167754.62    72.952367    72.952368    36.396956          120    24156.106    21158.218   -41546.557    3006.1195   -1910.1284   -230.47407    72.952367    63.178604    36.396956    1255.9224   -307949.26 
     730    1913.4153    167719.58    72.947288    72.947289    36.394422          120    23046.313    23533.554   -35498.129    3001.2587   -2971.2072    173.35065    72.947288    63.174205    36.394422    3693.9127   -307919.79 
     740    1909.0188    167685.59     72.94236    72.942361    36.391964          120    21055.592    24985.592   -36994.678     2324.074    -1843.194     607.5474     72.94236    63.169938    36.391964    3015.5022   -307926.27 
     750     1905.744    167652.58    72.937574    72.937574    36.389576          120    22814.619    23209.827   -38904.539    1535.6138    748.67084   -943.81301    72.937574    63.165792    36.389576    2373.3025   -307934.56 
     760    1914.5003    167620.47    72.932916    72.932916    36.387252          120    25979.455    20848.388    -38096.19    1203.4599   -814.67497    -1450.547    72.932916    63.161758    36.387252     2910.551   -307965.31 
     770     1904.493    167589.24    72.928387    72.928388    36.384992          120    25654.882    21470.702   -37999.645    3830.1349   -952.46657    -970.3526    72.928387    63.157837    36.384992    3041.9799    -307959.9 
     780    1887.5439     167558.9    72.923985    72.923985    36.382796          120    25840.382    21770.743    -39941.38    3529.9744   -253.16096   -832.18645    72.923985    63.154024    36.382796    2556.5819   -307940.24 
     790    1891.3068    167529.35    72.919698    72.919698    36.380657          120    21730.544     23628.05   -40618.237    3831.1683   -646.62091   -445.77906    72.919698    63.150311    36.380657    1580.1192    -307959.4 
     800    1916.0996    167500.49    72.915511    72.915512    36.378568          120    20687.548    24665.749   -41490.231    2509.5262    989.78026   -1187.0645    72.915511    63.146686    36.378568    1287.6887   -308019.83 
     810    1886.4352    167472.31    72.911421    72.911421    36.376528          120     22282.92      26408.6   -39450.395    743.66371    964.33795   -1040.7736    72.911421    63.143143    36.376528    3080.3749   -307974.02 
     820    1896.6536    167444.89    72.907442    72.907443    36.374543          120    24030.407    25945.348   -36973.638    2653.8293   -1621.0504   -1137.4753    72.907442    63.139698    36.374543    4334.0391   -308004.19 
     830    1895.1316    167418.35     72.90359     72.90359    36.372621          120    25626.743    25750.286   -35189.811    290.57441    1800.1852    700.14009     72.90359    63.136361    36.372621    5395.7395   -308012.58 
     840    1892.4298    167392.75    72.899874    72.899874    36.370767          120    26607.859    26319.867   -33017.252    1007.2172    79.177431    1346.7681    72.899874    63.133143    36.370767    6636.8245   -308017.89 
     850    1885.2499    167368.14    72.896301    72.896302    36.368984          120    23513.954    27991.831   -35328.286    1967.9465   -398.89702    931.04206    72.896301    63.130049    36.368984    5392.4997   -308012.23 
     860    1893.4544    167344.43    72.892858    72.892859    36.367267          120     24309.64    26762.635   -35418.744    1593.8717    1598.5215     150.3447    72.892858    63.127068    36.367267    5217.8436   -308036.82 
     870    1877.2355    167321.56    72.889538    72.889538     36.36561          120    24632.165    26597.887   -37101.399    567.89685    299.58827    -793.2537    72.889538    63.124192     36.36561    4709.5511   -308012.76 
     880     1873.317    167299.47     72.88633     72.88633    36.364009          120    23974.152    23887.132   -38304.406    2069.9634   -908.76973   -461.86229     72.88633    63.121414    36.364009    3185.6261   -308012.92 
     890    1868.6237    167278.01    72.883214    72.883214    36.362455          120    22877.543    23045.384   -37651.659    2376.0597   -935.56495   -773.26298    72.883214    63.118715    36.362455    2757.0892   -308010.47 
     900    1874.7392    167257.18    72.880187    72.880188    36.360945          120    24265.316    26745.273   -35248.318    1904.8976    338.20973    633.03964    72.880187    63.116094    36.360945    5254.0905   -308027.52 
     910    1867.2287     167237.1    72.877271    72.877272     36.35949          120    25983.375    26131.728   -37025.759    709.88491    521.09567    1824.8492    72.877271    63.113569     36.35949    5029.7813   -308016.61 
     920    1875.6157    167217.77    72.874464    72.874465     36.35809          120    21879.992    27196.305   -35363.138    1350.7327    416.80244    1723.9691    72.874464    63.111138     36.35809     4571.053   -308035.84 
     930    1892.7827    167199.13    72.871756    72.871756    36.356738          120    23561.897    24782.422   -37586.235     236.4643    620.73601    922.48471    72.871756    63.108792    36.356738    3586.0279   -308070.23 
     940    1868.2476     167181.1    72.869136    72.869137    36.355431          120    26001.204    25975.327   -35280.657    1266.0806    427.57302    1282.0344    72.869136    63.106524    36.355431    5565.2915   -308024.98 
     950    1876.7068    167163.82    72.866625    72.866625    36.354178          120    26305.428    29227.978   -33189.386     1739.406   -87.875524   -272.16588    72.866625    63.104349    36.354178    7448.0066   -308041.83 
     960    1889.2211    167147.42    72.864242    72.864243     36.35299          120    27840.972    30675.141   -33105.939    435.67115   -404.13984   -438.51085    72.864242    63.102285     36.35299    8470.0578   -308065.37 
     970    1877.2535    167131.96    72.861996    72.861996    36.351869          120    26201.734    27636.492   -33706.348    454.64023    996.30214    1542.9299    72.861996     63.10034    36.351869     6710.626   -308041.28 
     980    1882.5117     167117.3    72.859865    72.859866    36.350806          120    24872.032    26948.642   -33508.993    278.27005    -147.5566    1476.0479    72.859865    63.098495    36.350806    6103.8938   -308049.99 
     990    1886.5283    167103.35    72.857839    72.857839    36.349795          120    23172.846    26001.613   -33687.191   -1044.2421    -663.9201    1085.3081    72.857839     63.09674    36.349795    5162.4225   -308055.71 
    1000    1880.4917    167090.07    72.855908    72.855908    36.348832          120    24744.406    27461.264   -33315.706   -662.76284   -799.89157   -720.49377    72.855908    63.095068    36.348832    6296.6548   -308041.03 
Loop time of 416.598 on 1 procs for 1000 steps with 14848 atoms

Performance: 0.207 ns/day, 115.722 hours/ns, 2.400 timesteps/s
100.0% CPU use with 1 MPI tasks x no OpenMP threads

MPI task timing breakdown:
Section |  min time  |  avg time  |  max time  |%varavg| %total
---------------------------------------------------------------
Pair    | 291.46     | 291.46     | 291.46     |   0.0 | 69.96
Bond    | 0.00054383 | 0.00054383 | 0.00054383 |   0.0 |  0.00
Kspace  | 13.839     | 13.839     | 13.839     |   0.0 |  3.32
Neigh   | 102.49     | 102.49     | 102.49     |   0.0 | 24.60
Comm    | 0.67754    | 0.67754    | 0.67754    |   0.0 |  0.16
Output  | 0.012971   | 0.012971   | 0.012971   |   0.0 |  0.00
Modify  | 7.9269     | 7.9269     | 7.9269     |   0.0 |  1.90
Other   |            | 0.1903     |            |       |  0.05

Nlocal:    14848 ave 14848 max 14848 min
Histogram: 1 0 0 0 0 0 0 0 0 0
Nghost:    46394 ave 46394 max 46394 min
Histogram: 1 0 0 0 0 0 0 0 0 0
Neighs:    9.84572e+06 ave 9.84572e+06 max 9.84572e+06 min
Histogram: 1 0 0 0 0 0 0 0 0 0

Total # of neighbors = 9845725
Ave neighs/atom = 663.101
Ave special neighs/atom = 0
Neighbor list builds = 322
Dangerous builds = 0
PPPM initialization ...
  using 12-bit tables for long-range coulomb (../kspace.cpp:321)
  G vector (1/distance) = 0.202224
  grid = 36 50 24
  stencil order = 5
  estimated absolute RMS force accuracy = 0.00102159
  estimated relative force accuracy = 7.09455e-05
  using double precision FFTs
  3d grid and FFT values/proc = 65395 43200
Setting up Verlet run ...
  Unit style    : metal
  Current step  : 0
  Time step     : 0.001
Per MPI rank memory allocation (min/avg/max) = 149.2 | 149.2 | 149.2 Mbytes
Step Temp Volume Cella Cellb Cellc CellGamma Pxx Pyy Pzz Pxy Pxz Pyz Lx Ly Lz Press PotEng 
       0    1880.4917    167090.07    72.855908    72.855908    36.348832          120    24749.685     27466.71   -33315.626   -662.53936   -799.98455   -720.51637    72.855908    63.095068    36.348832    6300.2562   -308040.97 
  100000    1894.7862     169874.2    73.258333    73.258334    36.549607          120    17516.295    20714.536   -37360.327    523.97203   -243.69983   -1107.5495    73.258333    63.443578    36.549607    290.16786   -308121.55 
Loop time of 41217.7 on 1 procs for 100000 steps with 14848 atoms

Performance: 0.210 ns/day, 114.494 hours/ns, 2.426 timesteps/s
100.0% CPU use with 1 MPI tasks x no OpenMP threads

MPI task timing breakdown:
Section |  min time  |  avg time  |  max time  |%varavg| %total
---------------------------------------------------------------
Pair    | 28276      | 28276      | 28276      |   0.0 | 68.60
Bond    | 0.055578   | 0.055578   | 0.055578   |   0.0 |  0.00
Kspace  | 1393.2     | 1393.2     | 1393.2     |   0.0 |  3.38
Neigh   | 10663      | 10663      | 10663      |   0.0 | 25.87
Comm    | 69.225     | 69.225     | 69.225     |   0.0 |  0.17
Output  | 0.00014114 | 0.00014114 | 0.00014114 |   0.0 |  0.00
Modify  | 796.65     | 796.65     | 796.65     |   0.0 |  1.93
Other   |            | 19.21      |            |       |  0.05

Nlocal:    14848 ave 14848 max 14848 min
Histogram: 1 0 0 0 0 0 0 0 0 0
Nghost:    45895 ave 45895 max 45895 min
Histogram: 1 0 0 0 0 0 0 0 0 0
Neighs:    9.68387e+06 ave 9.68387e+06 max 9.68387e+06 min
Histogram: 1 0 0 0 0 0 0 0 0 0

Total # of neighbors = 9683872
Ave neighs/atom = 652.2
Ave special neighs/atom = 0
Neighbor list builds = 33084
Dangerous builds = 0
 
All done!
Total wall time: 11:33:55
