LAMMPS (16 Mar 2018)
Reading data file ...
  triclinic box = (0 0 0) to (9.208 7.97436 18.376) with tilt (-4.604 0 0)
  1 by 1 by 1 MPI processor grid
  reading atoms ...
  116 atoms
Finding 1-2 1-3 1-4 neighbors ...
  special bond factors lj:   0          0          0         
  special bond factors coul: 0          0          0         
  0 = max # of 1-2 neighbors
  0 = max # of 1-3 neighbors
  0 = max # of 1-4 neighbors
  1 = max # of special neighbors
Replicating atoms ...
  triclinic box = (0 0 0) to (73.664 63.7949 36.752) with tilt (-36.832 0 0)
  1 by 1 by 1 MPI processor grid
  14848 atoms
Finding 1-2 1-3 1-4 neighbors ...
  special bond factors lj:   0          0          0         
  special bond factors coul: 0          0          0         
  0 = max # of 1-2 neighbors
  0 = max # of 1-3 neighbors
  0 = max # of 1-4 neighbors
  1 = max # of special neighbors
  Time spent = 0.004035 secs
PPPM initialization ...
WARNING: System is not charge neutral, net charge = -0.2048 (../kspace.cpp:302)
  using 12-bit tables for long-range coulomb (../kspace.cpp:321)
  G vector (1/distance) = 0.201681
  grid = 36 50 24
  stencil order = 5
  estimated absolute RMS force accuracy = 0.00105653
  estimated relative force accuracy = 7.33721e-05
  using double precision FFTs
  3d grid and FFT values/proc = 65395 43200
Neighbor list info ...
  update every 1 steps, delay 0 steps, check yes
  max neighbors/atom: 2000, page size: 100000
  master list distance cutoff = 15.3
  ghost atom cutoff = 15.3
  binsize = 7.65, bins = 15 9 5
  3 neighbor lists, perpetual/occasional/extra = 3 0 0
  (1) pair morse, perpetual
      attributes: half, newton on
      pair build: half/bin/newton/tri
      stencil: half/bin/3d/newton/tri
      bin: standard
  (2) pair buck, perpetual, copy from (1)
      attributes: half, newton on
      pair build: copy
      stencil: none
      bin: none
  (3) pair lj/cut/coul/long, perpetual, copy from (1)
      attributes: half, newton on
      pair build: copy
      stencil: none
      bin: none
Setting up Verlet run ...
  Unit style    : metal
  Current step  : 0
  Time step     : 0.001
Per MPI rank memory allocation (min/avg/max) = 145.7 | 145.7 | 145.7 Mbytes
Step Temp Volume Cella Cellb Cellc CellGamma Pxx Pyy Pzz Pxy Pxz Pyz Lx Ly Lz Press PotEng 
       0         1100    172711.88       73.664    73.664001       36.752          120   -191157.18   -191355.17   -262862.59     87.91246    -27.96819    37.412368       73.664    63.794896       36.752   -215124.98   -308813.33 
      10    734.06602     172695.1    73.661614    73.661615     36.75081          120   -182143.41   -182232.48   -227352.11    149.98236   -33.783368    -341.4072    73.661614     63.79283     36.75081   -197242.67   -308119.69 
      20    1046.7745    172647.11     73.65479    73.654791    36.747405          120   -166308.21   -166703.95   -162801.52    168.57733   -111.55461   -675.23288     73.65479     63.78692    36.747405   -165271.23   -308723.87 
      30    1133.3499     172573.3    73.644293    73.644293    36.742168          120   -120992.68   -121333.58   -83497.306   -176.11468   -839.76879   -606.14771    73.644293    63.777829    36.742168   -108607.86   -308886.95 
      40    911.19867    172482.49    73.631372    73.631373    36.735722          120   -74485.062   -75390.517   -10092.707   -1575.5192   -984.55873    -488.7015    73.631372     63.76664    36.735722   -53322.762   -308448.48 
      50    1041.2124    172383.01    73.617215    73.617215    36.728658          120   -53450.867   -54619.067   -4084.2893   -344.35516    -351.4287   -734.64109    73.617215    63.754379    36.728658   -37384.741   -308683.58 
      60    1249.2444    172277.71    73.602222    73.602222    36.721178          120    -50035.84    -49411.16   -53489.527   -1451.7639   -1536.0313   -864.02064    73.602222    63.741394    36.721178   -50978.842   -309070.67 
      70    1355.9119    172165.05    73.586174    73.586175    36.713172          120   -47088.875   -48548.244   -115085.27   -1981.5755   -2184.6212   -693.51327    73.586174    63.727497    36.713172   -70240.796    -309276.4 
      80    1236.6426    172042.45    73.568703    73.568703    36.704455          120   -48106.315   -50627.671    -155350.5   -2013.3257    -1913.029   -451.07572    73.568703    63.712366    36.704455    -84694.83   -309059.23 
      90    1036.0198    171908.17    73.549558    73.549558    36.694903          120   -47110.124   -46837.991   -163439.92   -1458.1021   -2625.5883   -2097.0534    73.549558    63.695786    36.694903   -85796.013   -308686.47 
     100    1079.7391    171762.73     73.52881     73.52881    36.684552          120     -31494.2   -30214.411   -142787.18   -1332.0669   -2232.2957   -1898.0745     73.52881    63.677818    36.684552   -68165.263   -308782.66 
     110    1214.2619    171609.39    73.506923    73.506923    36.673632          120   -13805.086    -13351.46   -107292.02    -1935.211   -618.66193   -2164.4216    73.506923    63.658863    36.673632   -44816.187   -309051.92 
     120    1234.2435    171452.44    73.484506    73.484507    36.662448          120   -4146.3351   -3913.8774   -65415.334   -1642.8007     60.93096   -1689.9572    73.484506     63.63945    36.662448   -24491.849   -309103.19 
     130    1170.6547    171295.69    73.462105    73.462106    36.651272          120   -3577.5231   -1940.5575   -32264.387   -880.26861   -731.48787   -1621.0663    73.462105     63.62005    36.651272   -12594.156    -308996.4 
     140    1137.4202    171141.58    73.440069    73.440069    36.640277          120    -7122.874   -6547.3915   -20086.733   -811.39254   -744.62722   -2943.2896    73.440069    63.600966    36.640277   -11252.333   -308945.25 
     150    1159.7709     170990.8    73.418495    73.418496    36.629514          120   -14390.519   -13143.099   -36532.575   -1531.3976   -906.69703   -2096.6224    73.418495    63.582283    36.629514   -21355.398   -309000.55 
     160    1215.2859    170842.34     73.39724    73.397241     36.61891          120   -21792.176   -19257.496   -65254.647   -1946.7489   -1364.3323   -3058.3794     73.39724    63.563875     36.61891   -35434.773   -309122.37 
     170    1230.1953    170694.54    73.376068    73.376068    36.608347          120   -24236.462   -23533.198   -92847.955   -1655.8004   -2395.6656   -3097.8862    73.376068    63.545539    36.608347   -46872.538   -309169.33 
     180    1170.9475    170546.22    73.354809     73.35481     36.59774          120   -21800.516   -20976.103   -109685.91   -764.25429   -1895.7449   -2895.3905    73.354809    63.527129     36.59774   -50820.844   -309075.81 
     190    1151.8863    170397.26    73.333447    73.333447    36.587082          120   -20299.761   -17091.827   -111490.47   -1088.7175   -3962.1016   -2265.9357    73.333447    63.508629    36.587082   -49627.354   -309057.48 
     200      1162.65    170248.42    73.312089    73.312089    36.576426          120   -15658.133   -14385.081   -96797.297   -1685.0968   -3093.6095   -2064.9066    73.312089    63.490132    36.576426    -42280.17   -309094.35 
     210    1198.1874    170101.14    73.290943    73.290943    36.565876          120    -11802.58   -12263.695   -78687.278   -1276.9959   -2776.6304   -2301.1534    73.290943    63.471819    36.565876   -34251.184   -309179.43 
     220    1190.8979    169956.96    73.270228    73.270229    36.555542          120   -9011.0963   -7653.4542    -63267.29   -2300.2141    -2226.062   -3420.7837    73.270228     63.45388    36.555542   -26643.947   -309182.29 
     230    1178.5416     169817.1    73.250124    73.250125    36.545511          120   -10018.206   -7763.6445   -54972.749   -1952.0546   -1733.2875   -5653.8428    73.250124    63.436469    36.545511   -24251.533   -309174.42 
     240    1171.9321    169681.97    73.230691    73.230691    36.535816          120   -11266.924   -9617.8198   -52393.146     -901.611   -1203.9248    -5996.836    73.230691    63.419639    36.535816   -24425.963   -309178.23 
     250    1181.4522    169551.43    73.211906    73.211907    36.526444          120   -13268.444    -12269.23   -59761.983    187.73548   -451.44245   -5091.1089    73.211906    63.403371    36.526444   -28433.219    -309212.9 
     260    1198.3492    169424.73    73.193666    73.193666    36.517344          120   -17608.129    -13732.62   -71529.384    113.89721   -832.53183   -5303.7578    73.193666    63.387574    36.517344   -34290.044   -309263.36 
     270    1193.9019    169300.92    73.175832    73.175832    36.508446          120   -18099.392   -14351.718   -79721.061    249.55945   -1353.5985   -4032.4989    73.175832     63.37213    36.508446   -37390.724   -309273.82 
     280    1174.8884    169179.35    73.158312    73.158313    36.499705          120   -18058.573   -15760.427   -85213.381    582.59598   -242.67414   -2898.3964    73.158312    63.356958    36.499705    -39677.46   -309256.09 
     290    1171.2655    169059.59    73.141046    73.141047    36.491091          120   -16181.762   -12740.309   -83919.953    695.15995   -900.45482   -3690.5504    73.141046    63.342005    36.491091   -37614.008   -309267.27 
     300    1169.0103    168941.76     73.12405     73.12405    36.482611          120   -11995.347   -10520.119   -76808.541   -274.64604   -1021.8293   -3753.4231     73.12405    63.327285    36.482611   -33108.002   -309280.01 
     310    1176.9099    168826.32     73.10739    73.107391      36.4743          120   -10024.449   -8198.3407   -66726.732   -244.11955    -2349.317   -4157.7609     73.10739    63.312858      36.4743   -28316.507   -309311.45 
     320    1160.8014     168713.7     73.09113    73.091131    36.466187          120   -7752.1801   -6650.1996   -57370.875    8.4557144   -886.10753   -4070.5742     73.09113    63.298776    36.466187   -23924.418   -309296.74 
     330    1169.9272    168604.23    73.075318    73.075318    36.458298          120   -7351.0096   -5149.1049   -52089.673    946.30119   -718.26648   -4609.4641    73.075318    63.285082    36.458298   -21529.929   -309329.85 
     340    1164.6059     168497.9    73.059953    73.059954    36.450632          120   -7230.6347   -6268.3573   -54792.011    500.44342   -823.85422   -5045.4964    73.059953    63.271776    36.450632   -22763.668    -309334.8 
     350    1173.1706    168394.23    73.044966    73.044967    36.443155          120   -8024.2043   -6177.5586    -60078.17     1065.327     233.2575   -3509.7623    73.044966    63.258797    36.443155   -24759.978   -309367.61 
     360    1168.8034    168292.61    73.030271    73.030271    36.435824          120   -9033.2821   -6412.5336   -66590.495    1083.6073    573.26951   -3341.6506    73.030271     63.24607    36.435824   -27345.437   -309375.35 
     370    1160.3891    168192.41    73.015775    73.015775    36.428591          120   -7959.2387   -6006.4161   -71384.699    745.09671    619.22506   -2301.3633    73.015775    63.233516    36.428591   -28450.118   -309375.51 
     380     1158.252    168093.25    73.001422    73.001422     36.42143          120   -5520.3611   -3688.4014   -72973.406    273.36478    352.22233   -2033.5318    73.001422    63.221086     36.42143   -27394.056   -309387.22 
     390    1150.0624    167995.06    72.987205    72.987206    36.414338          120   -4152.8011   -2677.2109   -69099.694   -236.74526    1728.0647   -2943.1434    72.987205    63.208774    36.414338   -25309.902   -309386.91 
     400    1157.3097    167897.97    72.973141    72.973141    36.407321          120   -2188.3371   -988.72386   -62258.128   -524.73874    2345.8747   -3561.4754    72.973141    63.196594    36.407321    -21811.73   -309415.81 
     410    1161.2953    167802.29    72.959277    72.959277    36.400404          120    89.174475     2289.133   -53949.087    414.96711    789.77084   -2624.8987    72.959277    63.184588    36.400404    -17190.26   -309437.62 
     420    1152.4198    167708.47    72.945677    72.945678    36.393619          120    2957.4201    4412.3999   -49040.452    518.04404    218.31064   -3332.9314    72.945677     63.17281    36.393619   -13890.211   -309435.29 
     430    1143.6286    167616.76    72.932379    72.932379    36.386984          120    2549.4681    2681.9731   -47500.695    506.32367   0.30488293    -3725.111    72.932379    63.161293    36.386984   -14089.751   -309433.47 
     440    1151.5962    167526.96    72.919352    72.919352    36.380485          120    900.64402    939.72712   -51662.684   -510.67781    329.02802   -2468.7842    72.919352    63.150012    36.380485   -16607.438    -309462.6 
     450    1147.1423    167438.56    72.906523    72.906524    36.374084          120    1077.6726    772.93396   -56405.188    24.146959   -533.31897    -620.4488    72.906523    63.138902    36.374084   -18184.861   -309467.79 
     460    1145.7113    167351.17    72.893837    72.893838    36.367755          120     1079.587    1790.9154   -60584.907   -47.132752    326.13412   -379.02788    72.893837    63.127915    36.367755   -19238.135   -309478.55 
     470    1152.3563    167264.54    72.881257    72.881258    36.361479          120    1867.1603    1993.6648   -60739.341   -640.66591   -0.9707171    538.45143    72.881257    63.117021    36.361479   -18959.505   -309505.13 
     480    1135.3731     167178.6    72.868774    72.868774     36.35525          120    3321.8738    3237.0595   -58641.421   -204.81322   -80.067372   -1492.8101    72.868774     63.10621     36.35525   -17360.829   -309486.28 
     490    1143.1472    167093.49    72.856405    72.856406     36.34908          120    3971.2138    4755.8592   -55286.024     1286.534   -1204.4922   -2733.1805    72.856405    63.095498     36.34908    -15519.65   -309514.91 
     500    1134.1758    167009.41    72.844183    72.844184    36.342982          120    6198.3845    7394.4856   -51603.128    439.06539   -344.91314   -2736.3418    72.844183    63.084914    36.342982   -12670.086   -309510.66 
     510    1126.5979     166926.7    72.832155    72.832156    36.336981          120    7136.1437    8132.8259   -46407.346   -416.57604    -220.8894   -4020.6035    72.832155    63.074497    36.336981   -10379.459   -309508.43 
     520    1132.0086    166845.55    72.820351    72.820352    36.331092          120    7621.1477    7970.3743   -44836.676   -207.20368    406.16328   -2714.3591    72.820351    63.064275    36.331092   -9748.3845   -309530.71 
     530    1138.6573    166765.97    72.808772    72.808773    36.325315          120    7756.3732    7820.9631   -48355.865   -537.36156    63.893265   -3300.2382    72.808772    63.054247    36.325315   -10926.176   -309555.79 
     540     1111.192    166687.76    72.797388    72.797388    36.319635          120    8195.3948    7268.0612    -48507.79   -2102.8375   -545.65458   -2465.3764    72.797388    63.044388    36.319635   -11014.778   -309513.93 
     550    1127.2973     166610.8    72.786183    72.786184    36.314045          120    10013.216     9310.607   -49091.578   -1818.2394   -1792.4617    -1550.891    72.786183    63.034684    36.314045   -9922.5849   -309557.68 
     560    1121.1421     166535.2    72.775173    72.775173    36.308552          120    10907.761    11890.098   -48186.179   -500.72649   -2964.5862   -388.11076    72.775173    63.025149    36.308552   -8462.7735   -309556.23 
     570    1121.1349    166461.09    72.764376    72.764376    36.303165          120     12749.71    10892.934   -46785.941   -111.67045   -3033.7924   -683.40937    72.764376    63.015798    36.303165   -7714.4326   -309567.19 
     580    1130.2118    166388.52      72.7538    72.753801    36.297888          120    12194.065    11675.907   -45374.906    -308.3119   -2195.7122   -2598.8953      72.7538     63.00664    36.297888   -7168.3113   -309594.77 
     590    1109.9411    166317.52    72.743451    72.743451    36.292725          120    12691.279    12890.085   -44046.019   -733.41194   -525.37277   -2371.5702    72.743451    62.997677    36.292725   -6154.8852   -309566.59 
     600    1123.4381    166248.13    72.733333    72.733333    36.287677          120    10928.019    11919.241   -42714.532    -731.3902   -469.40027   -2206.7322    72.733333    62.988914    36.287677   -6622.4239   -309602.73 
     610    1117.4764    166180.27    72.723434    72.723435    36.282739          120    11340.456    13939.593   -41371.225   -128.11709   -596.77984   -2402.0772    72.723434    62.980342    36.282739   -5363.7251   -309601.81 
     620      1117.63    166114.01    72.713768    72.713768    36.277916          120    12911.906    14721.994   -40509.696   -11.905783   -1565.1369   -2962.5788    72.713768    62.971971    36.277916   -4291.9317   -309611.45 
     630     1112.308    166049.45    72.704346    72.704347    36.273215          120    15441.818    14538.535   -41246.467   -597.74751   -2542.1481   -3003.4386    72.704346    62.963811    36.273215   -3755.3715   -309611.35 
     640    1121.4299    165986.59     72.69517    72.695171    36.268637          120    14874.912    14624.245   -41838.738   -1575.2103   -2653.3066   -3268.7655     72.69517    62.955865    36.268637   -4113.1937   -309638.34 
     650      1116.56    165925.32    72.686225    72.686226    36.264175          120    15059.657    13479.548    -43601.57   -2010.3556   -3320.7131   -3699.1751    72.686225    62.948118    36.264175   -5020.7881   -309638.46 
     660    1106.0609    165865.48    72.677487    72.677487    36.259815          120    14270.737    15741.787   -43441.128   -1425.1365   -3771.1073   -3233.1687    72.677487     62.94055    36.259815   -4476.2011   -309627.43 
     670    1105.9983    165807.07    72.668954    72.668955    36.255558          120    15427.391    17246.658   -42129.377   -595.40038   -3217.4558   -2783.8676    72.668954    62.933161    36.255558   -3151.7761      -309636 
     680    1104.3619    165750.23     72.66065     72.66065    36.251415          120    16809.734    18255.941   -38721.622   -333.87742   -3246.8783   -2746.4667     72.66065    62.925969    36.251415    -1218.649   -309641.41 
     690    1105.5176    165695.17    72.652603    72.652604      36.2474          120    17568.587    19165.403   -36516.676   -1297.7466   -3832.8704   -3836.3865    72.652603       62.919      36.2474    72.438053   -309651.59 
     700    1104.0565    165642.01    72.644832    72.644832    36.243523          120     18481.63    20334.467   -35148.417   -2204.1434   -1870.1412   -4347.0379    72.644832     62.91227    36.243523    1222.5598   -309656.88 
     710      1100.18    165590.81    72.637347    72.637347    36.239788          120    18678.925    20243.338   -34310.241   -1466.4914   -1056.7229   -2939.5258    72.637347    62.905788    36.239788    1537.3404   -309657.15 
     720    1093.7032    165541.58    72.630148    72.630149    36.236197          120    19336.215    21287.441   -33912.576   -822.14473   -2417.0783   -2505.3143    72.630148    62.899554    36.236197    2237.0267   -309652.36 
     730    1115.7812    165494.33    72.623236    72.623237    36.232748          120    19686.718     20402.42    -35353.96   -853.51386   -2468.2571   -3507.0675    72.623236    62.893568    36.232748    1578.3926   -309701.01 
     740    1098.6642     165448.9    72.616591    72.616592    36.229433          120    19437.463    21378.266   -37043.107   -759.08772   -3206.4753   -3004.6213    72.616591    62.887813    36.229433    1257.5408    -309674.6 
     750    1094.8177    165405.18    72.610194    72.610195    36.226242          120    19007.952    21706.646    -36550.53   -383.46578   -3764.0688   -1960.9447    72.610194    62.882274    36.226242    1388.0225    -309673.2 
     760    1108.2175     165363.1    72.604036    72.604036    36.223169          120    19253.594     21396.34   -37752.081    718.96954   -2671.3067   -3503.8428    72.604036     62.87694    36.223169    965.95093   -309704.28 
     770    1096.8869    165322.58    72.598105    72.598105     36.22021          120    21038.947    21478.795   -37362.909    941.78219   -2065.0668   -3086.7507    72.598105    62.871804     36.22021    1718.2776   -309688.79 
     780    1092.4957    165283.66    72.592407    72.592408    36.217367          120    21960.685    22374.606   -33994.731    471.87975   -1074.0469   -3061.3067    72.592407     62.86687    36.217367    3446.8537   -309686.15 
     790    1095.0316    165246.52    72.586969     72.58697    36.214654          120    25012.078    23667.492   -30357.142    529.09576    -2017.507   -2760.4152    72.586969     62.86216    36.214654    6107.4758   -309696.69 
     800    1093.5153    165211.41     72.58183     72.58183     36.21209          120     24098.61    24271.563   -30934.519    21.861576   -3187.3271   -1041.3064     72.58183    62.857709     36.21209    5811.8848   -309698.98 
     810    1091.7345    165178.28    72.576977    72.576977    36.209669          120    22555.415     24667.16   -32008.614   -426.56304   -3855.6368   -1588.7307    72.576977    62.853506    36.209669    5071.3201   -309700.06 
     820    1096.7057    165146.93    72.572385    72.572385    36.207378          120    23216.996    22703.307   -31939.939    214.16202   -3217.7284   -3593.2391    72.572385     62.84953    36.207378    4660.1213   -309713.02 
     830    1105.1389    165117.24    72.568036    72.568037    36.205208          120    22706.039    21259.874   -32756.822    921.37762   -2114.4759   -2568.4355    72.568036    62.845763    36.205208    3736.3637   -309732.98 
     840    1091.0594    165089.05    72.563906    72.563907    36.203148          120    22796.365    22673.588   -32125.652     708.6105   -1467.1986   -1525.9737    72.563906    62.842187    36.203148    4448.1003   -309709.27 
     850    1096.3209    165062.38    72.559998    72.559998    36.201198          120    22210.854    24256.791   -30932.702    303.19546   -1793.2271   -2538.1646    72.559998    62.838802    36.201198    5178.3142   -309723.06 
     860    1084.2461    165037.27    72.556319     72.55632    36.199362          120    21391.451    25135.956   -29669.846    1514.7177   -2356.0243   -3228.7739    72.556319    62.835616    36.199362     5619.187   -309702.86 
     870    1089.7064    165013.72    72.552867    72.552868     36.19764          120    19966.123    26413.903    -31052.07    934.38015   -3565.6777   -4025.1675    72.552867    62.832627     36.19764    5109.3184   -309716.33 
     880    1101.6886    164991.62    72.549629    72.549629    36.196025          120    21119.988    24280.967   -29804.376    1231.7436   -2827.9159   -3282.4658    72.549629    62.829822    36.196025    5198.8595   -309741.89 
     890    1089.4145    164970.95    72.546598    72.546599    36.194513          120    22656.272    23465.368   -30308.308     2136.603   -3041.6963   -2652.1016    72.546598    62.827198    36.194513    5271.1105   -309719.97 
     900    1096.3044    164951.63    72.543767    72.543767      36.1931          120    22392.912    23230.945   -31884.619    523.25668   -4062.9495     -2352.84    72.543767    62.824745      36.1931    4579.7462   -309734.97 
     910    1086.9562    164933.55    72.541116    72.541116    36.191777          120    22818.829    23143.811   -31954.065   -299.45643   -4440.3037   -3602.1141    72.541116     62.82245    36.191777     4669.525   -309718.03 
     920    1096.3902    164916.66     72.53864     72.53864    36.190542          120    21687.081    24417.954   -30497.608    848.26757   -4446.8661   -3011.3811     72.53864    62.820305    36.190542    5202.4757   -309737.43 
     930    1099.6545       164901    72.536344    72.536344    36.189396          120    21951.369    26453.738   -30714.957    1029.2009   -4084.9109   -2514.1719    72.536344    62.818317    36.189396    5896.7166    -309745.3 
     940    1090.9837    164886.66    72.534241    72.534242    36.188348          120    24449.853    27917.378   -29789.831   -425.78631   -3709.7288   -3962.7109    72.534241    62.816496    36.188348    7525.8001   -309729.67 
     950    1096.2221    164873.77    72.532351    72.532351    36.187404          120      23864.5    26688.481   -31312.008   -141.19269   -2934.0532   -2484.6109    72.532351    62.814859    36.187404    6413.6576   -309740.58 
     960    1083.7517    164862.18    72.530651    72.530651    36.186556          120    24747.592    25658.021   -31579.312    808.59622   -1544.7539   -1762.1956    72.530651    62.813387    36.186556    6275.4336   -309716.37 
     970    1094.1224    164851.82    72.529131    72.529132    36.185798          120    25119.099    26634.368   -29786.929    -1171.187   -2944.8219   -1416.3838    72.529131    62.812071    36.185798    7322.1792   -309735.74 
     980    1099.5665    164842.79    72.527807    72.527807    36.185137          120    24944.137    27341.436   -28296.333    652.90871    -3543.229   -929.90626    72.527807    62.810924    36.185137    7996.4133   -309746.15 
     990    1097.6043    164835.14    72.526685    72.526685    36.184577          120    23842.344    26148.491   -26848.422    1828.0747   -3005.5376    -2114.458    72.526685    62.809952    36.184577    7714.1376   -309741.26 
    1000    1094.9549    164828.79    72.525754    72.525755    36.184113          120     22687.37    28248.023   -28524.158    1797.7034   -4637.1701   -2809.9997    72.525754    62.809146    36.184113    7470.4118   -309735.41 
Loop time of 319.84 on 1 procs for 1000 steps with 14848 atoms

Performance: 0.270 ns/day, 88.844 hours/ns, 3.127 timesteps/s
100.0% CPU use with 1 MPI tasks x no OpenMP threads

MPI task timing breakdown:
Section |  min time  |  avg time  |  max time  |%varavg| %total
---------------------------------------------------------------
Pair    | 233.92     | 233.92     | 233.92     |   0.0 | 73.14
Bond    | 0.00011778 | 0.00011778 | 0.00011778 |   0.0 |  0.00
Kspace  | 10.737     | 10.737     | 10.737     |   0.0 |  3.36
Neigh   | 68.528     | 68.528     | 68.528     |   0.0 | 21.43
Comm    | 0.42684    | 0.42684    | 0.42684    |   0.0 |  0.13
Output  | 0.010437   | 0.010437   | 0.010437   |   0.0 |  0.00
Modify  | 6.1178     | 6.1178     | 6.1178     |   0.0 |  1.91
Other   |            | 0.09806    |            |       |  0.03

Nlocal:    14848 ave 14848 max 14848 min
Histogram: 1 0 0 0 0 0 0 0 0 0
Nghost:    46641 ave 46641 max 46641 min
Histogram: 1 0 0 0 0 0 0 0 0 0
Neighs:    9.98312e+06 ave 9.98312e+06 max 9.98312e+06 min
Histogram: 1 0 0 0 0 0 0 0 0 0

Total # of neighbors = 9983120
Ave neighs/atom = 672.355
Ave special neighs/atom = 0
Neighbor list builds = 250
Dangerous builds = 0
PPPM initialization ...
  using 12-bit tables for long-range coulomb (../kspace.cpp:321)
  G vector (1/distance) = 0.202446
  grid = 36 50 24
  stencil order = 5
  estimated absolute RMS force accuracy = 0.00100757
  estimated relative force accuracy = 6.99718e-05
  using double precision FFTs
  3d grid and FFT values/proc = 65395 43200
Setting up Verlet run ...
  Unit style    : metal
  Current step  : 0
  Time step     : 0.001
Per MPI rank memory allocation (min/avg/max) = 150.3 | 150.3 | 150.3 Mbytes
Step Temp Volume Cella Cellb Cellc CellGamma Pxx Pyy Pzz Pxy Pxz Pyz Lx Ly Lz Press PotEng 
       0    1094.9549    164828.79    72.525754    72.525755    36.184113          120    22696.357     28257.19   -28521.246     1797.908   -4636.9894   -2809.9875    72.525754    62.809146    36.184113    7477.4335    -309735.3 
  100000    1085.8689    167816.79    72.961379     72.96138    36.401453          120     15577.97     17388.41     -39895.2    307.93101   -591.85378    82.377796    72.961379    63.186408    36.401453   -2309.6068   -309910.57 
Loop time of 31307.9 on 1 procs for 100000 steps with 14848 atoms

Performance: 0.276 ns/day, 86.966 hours/ns, 3.194 timesteps/s
100.0% CPU use with 1 MPI tasks x no OpenMP threads

MPI task timing breakdown:
Section |  min time  |  avg time  |  max time  |%varavg| %total
---------------------------------------------------------------
Pair    | 22698      | 22698      | 22698      |   0.0 | 72.50
Bond    | 0.010543   | 0.010543   | 0.010543   |   0.0 |  0.00
Kspace  | 1069.7     | 1069.7     | 1069.7     |   0.0 |  3.42
Neigh   | 6875.3     | 6875.3     | 6875.3     |   0.0 | 21.96
Comm    | 42.867     | 42.867     | 42.867     |   0.0 |  0.14
Output  | 9.8944e-05 | 9.8944e-05 | 9.8944e-05 |   0.0 |  0.00
Modify  | 612.1      | 612.1      | 612.1      |   0.0 |  1.96
Other   |            | 9.837      |            |       |  0.03

Nlocal:    14848 ave 14848 max 14848 min
Histogram: 1 0 0 0 0 0 0 0 0 0
Nghost:    46290 ave 46290 max 46290 min
Histogram: 1 0 0 0 0 0 0 0 0 0
Neighs:    9.80372e+06 ave 9.80372e+06 max 9.80372e+06 min
Histogram: 1 0 0 0 0 0 0 0 0 0

Total # of neighbors = 9803721
Ave neighs/atom = 660.272
Ave special neighs/atom = 0
Neighbor list builds = 25036
Dangerous builds = 0
 
All done!
Total wall time: 8:47:08
