LAMMPS (16 Mar 2018)
Reading data file ...
  triclinic box = (0 0 0) to (9.208 7.97436 18.376) with tilt (-4.604 0 0)
  1 by 1 by 1 MPI processor grid
  reading atoms ...
  116 atoms
Finding 1-2 1-3 1-4 neighbors ...
  special bond factors lj:   0          0          0         
  special bond factors coul: 0          0          0         
  0 = max # of 1-2 neighbors
  0 = max # of 1-3 neighbors
  0 = max # of 1-4 neighbors
  1 = max # of special neighbors
Replicating atoms ...
  triclinic box = (0 0 0) to (73.664 63.7949 36.752) with tilt (-36.832 0 0)
  1 by 1 by 1 MPI processor grid
  14848 atoms
Finding 1-2 1-3 1-4 neighbors ...
  special bond factors lj:   0          0          0         
  special bond factors coul: 0          0          0         
  0 = max # of 1-2 neighbors
  0 = max # of 1-3 neighbors
  0 = max # of 1-4 neighbors
  1 = max # of special neighbors
  Time spent = 0.00477195 secs
PPPM initialization ...
WARNING: System is not charge neutral, net charge = -0.2048 (../kspace.cpp:302)
  using 12-bit tables for long-range coulomb (../kspace.cpp:321)
  G vector (1/distance) = 0.201681
  grid = 36 50 24
  stencil order = 5
  estimated absolute RMS force accuracy = 0.00105653
  estimated relative force accuracy = 7.33721e-05
  using double precision FFTs
  3d grid and FFT values/proc = 65395 43200
Neighbor list info ...
  update every 1 steps, delay 0 steps, check yes
  max neighbors/atom: 2000, page size: 100000
  master list distance cutoff = 15.3
  ghost atom cutoff = 15.3
  binsize = 7.65, bins = 15 9 5
  3 neighbor lists, perpetual/occasional/extra = 3 0 0
  (1) pair morse, perpetual
      attributes: half, newton on
      pair build: half/bin/newton/tri
      stencil: half/bin/3d/newton/tri
      bin: standard
  (2) pair buck, perpetual, copy from (1)
      attributes: half, newton on
      pair build: copy
      stencil: none
      bin: none
  (3) pair lj/cut/coul/long, perpetual, copy from (1)
      attributes: half, newton on
      pair build: copy
      stencil: none
      bin: none
Setting up Verlet run ...
  Unit style    : metal
  Current step  : 0
  Time step     : 0.001
Per MPI rank memory allocation (min/avg/max) = 145.7 | 145.7 | 145.7 Mbytes
Step Temp Volume Cella Cellb Cellc CellGamma Pxx Pyy Pzz Pxy Pxz Pyz Lx Ly Lz Press PotEng 
       0         1700    172711.88       73.664    73.664001       36.752          120   -183967.82      -184278   -255765.61    135.15565    -43.22119     57.82001       73.664    63.794896       36.752   -208003.81   -308813.33 
      10    1009.1026    172701.49    73.662523    73.662524    36.751263          120   -166707.23   -166784.81    -210966.1    120.77342   -8.4080355   -436.96235    73.662523    63.793617    36.751263   -181486.05   -307488.67 
      20    1334.1494    172672.44    73.658393    73.658393    36.749203          120   -144317.26   -145402.04   -145663.71    336.31979    176.31304    -726.3712    73.658393     63.79004    36.749203   -145127.67   -308106.64 
      30    1446.7714    172628.71    73.652174    73.652175      36.7461          120   -95328.812   -96001.752   -68382.132   -278.13579    -875.2229   -657.52189    73.652174    63.784654      36.7461   -86570.899   -308305.59 
      40    1233.9363     172576.1    73.644691    73.644691    36.742366          120   -54244.539   -55432.125   -3494.9214   -1884.2117    -625.0222   -498.43477    73.644691    63.778174    36.742366   -37723.862   -307874.19 
      50    1380.0558    172519.32    73.636614    73.636615    36.738337          120   -41270.858   -42103.974   -7254.2412   -493.95167    158.75625   -938.89877    73.636614    63.771179    36.738337   -30209.691   -308129.44 
      60    1553.2166    172459.34    73.628078    73.628079    36.734078          120   -41684.249     -40896.6    -55586.11   -1487.9784   -1314.3644   -880.06617    73.628078    63.763787    36.734078   -46055.653   -308436.23 
      70    1643.3962    172394.76    73.618888    73.618888    36.729493          120   -39958.284   -42486.932   -112553.72   -1936.0053   -1993.5817   -407.23798    73.618888    63.755828    36.729493   -64999.644   -308590.01 
      80    1533.7223     172323.8    73.608785    73.608786    36.724452          120   -42809.145   -46039.677   -148140.78   -1708.1801    -1465.458   -702.71142    73.608785    63.747078    36.724452   -78996.532   -308361.75 
      90    1368.5391    172245.17    73.597588    73.597588    36.718866          120   -41786.983   -42116.831   -153615.66   -832.84738   -2577.4715     -2194.76    73.597588    63.737381    36.718866   -79173.159   -308025.11 
     100    1427.8399    172159.04    73.585318    73.585319    36.712745          120   -26347.152   -25292.372    -132772.8   -1474.0353   -2155.5348    -2553.141    73.585318    63.726756    36.712745   -61470.773   -308119.94 
     110    1543.4853    172067.23    73.572235    73.572236    36.706217          120   -9689.7288   -9801.4682   -100460.31   -1933.0613   -882.27151   -3000.7395    73.572235    63.715425    36.706217   -39983.837   -308320.88 
     120    1569.7033    171972.04    73.558665    73.558666    36.699447          120   -1362.5505   -2211.1694   -62097.405   -1343.1947     230.9432   -1648.8446    73.558665    63.703673    36.699447   -21890.375   -308350.41 
     130    1532.1491    171875.44     73.54489    73.544891    36.692575          120   -247.21397   -1091.3593   -32742.359     248.5965   -163.68371   -1832.9576     73.54489    63.691744    36.692575   -11360.311   -308258.35 
     140    1508.2581    171778.67    73.531085    73.531086    36.685687          120   -3881.4551   -5394.5776   -22202.091    43.324491   -1360.3936   -2870.0419    73.531085    63.679788    36.685687   -10492.708   -308192.22 
     150    1536.0907    171681.95    73.517282    73.517282      36.6788          120   -10319.956   -11810.389   -36629.865   -1200.7241   -1612.4748   -1850.6423    73.517282    63.667834      36.6788   -19586.737   -308225.45 
     160    1593.3472    171584.57    73.503379     73.50338    36.671864          120    -17768.64   -15618.558   -62978.557   -692.98715   -1377.9128   -3369.5779    73.503379    63.655795    36.671864   -32121.918   -308316.07 
     170    1606.6323    171485.48    73.489227    73.489227    36.664803          120   -18709.766   -20357.626   -89843.801    -877.8964   -3669.6525   -3603.6094    73.489227    63.643538    36.664803   -42970.398   -308323.08 
     180    1573.1908    171383.82    73.474702    73.474703    36.657557          120   -17088.647   -19475.545   -104597.85    590.74626   -3668.0109   -3945.5742    73.474702    63.630959    36.657557   -47054.015   -308243.06 
     190    1558.1526    171279.39    73.459776    73.459777     36.65011          120   -16876.407   -14949.294    -106508.6    822.57141    -4890.221   -3917.8788    73.459776    63.618033     36.65011   -46111.433   -308198.03 
     200    1577.1833    171172.56    73.444499      73.4445    36.642488          120   -12204.932   -13800.393   -94778.899   -600.34014   -6251.6857   -4712.6269    73.444499    63.604803    36.642488   -40261.408   -308216.65 
     210    1596.0606    171064.11    73.428986    73.428987    36.634748          120   -8523.8385    -9581.001   -79329.061    531.28251   -3508.3511   -4362.2301    73.428986    63.591368    36.634748   -32477.967    -308234.7 
     220    1610.7025    170955.06     73.41338     73.41338    36.626962          120   -6095.4189     -6371.31     -64942.4   -1610.6168   -1965.1457   -4060.3238     73.41338    63.577852    36.626962   -25803.043   -308244.35 
     230    1606.3143    170846.29    73.397806    73.397807    36.619192          120   -5222.3873   -5255.7637   -55039.874    -1749.477   -2659.9415    -5347.321    73.397806    63.564365    36.619192   -21839.342   -308217.65 
     240    1611.7558    170738.37    73.382348    73.382348     36.61148          120   -5376.1223   -5866.7899   -53280.836   -1183.8124   -1746.9944   -5937.8758    73.382348    63.550978     36.61148   -21507.916   -308209.71 
     250    1625.4754    170631.54     73.36704     73.36704    36.603842          120   -5186.5094   -5748.6591   -56410.229   -723.71844   -2556.4373   -5358.0124     73.36704    63.537721    36.603842   -22448.466   -308218.65 
     260    1660.6567    170525.84    73.351887    73.351888    36.596283          120   -7376.8956   -8494.2566   -65980.091   -923.72083    -2898.453   -4733.8113    73.351887    63.524598    36.596283   -27283.748   -308269.76 
     270    1676.1652    170420.96    73.336847    73.336847    36.588779          120   -10291.608   -10786.885   -76773.997   -842.55433   -3089.3819   -4474.2233    73.336847    63.511573    36.588779   -32617.497   -308285.17 
     280     1658.742    170316.54    73.321865    73.321865    36.581304          120   -13443.208    -11353.35    -84756.09   -489.68114   -3721.3511   -3577.1788    73.321865    63.498598    36.581304   -36517.549   -308237.89 
     290    1655.1796    170212.36    73.306912    73.306913    36.573844          120   -11333.506   -8262.5541   -84077.932   -2368.0214   -3183.0877   -2353.1725    73.306912    63.485649    36.573844   -34557.997   -308217.19 
     300     1685.245    170108.76    73.292036    73.292036    36.566422          120   -7551.2786   -5478.7802   -76407.119   -2606.8723   -2993.4544   -3330.4614    73.292036    63.472765    36.566422   -29812.393   -308261.92 
     310    1693.4198     170006.3    73.277318    73.277319    36.559079          120   -2839.4802   -3937.5708   -65739.027   -1733.4453   -2421.7391   -2495.9727    73.277318     63.46002    36.559079   -24172.026   -308264.58 
     320    1677.8893     169905.6    73.262847    73.262848    36.551859          120   -255.02094   -811.37431   -58787.073    208.87254   -1838.1055   -2989.0973    73.262847    63.447487    36.551859   -19951.156   -308221.52 
     330    1677.6322    169807.12    73.248689     73.24869    36.544796          120    78.923498    478.79157   -51055.819    533.28649   -2297.4218   -2551.5582    73.248689    63.435226    36.544796   -16832.701   -308208.61 
     340    1686.8865    169711.14    73.234886    73.234886    36.537909          120    883.73404    1069.7913   -50206.445    55.862118   -3279.1806   -2661.9361    73.234886    63.423272    36.537909   -16084.307   -308213.21 
     350    1700.5555    169617.69    73.221442    73.221443    36.531202          120    1456.7489   -374.57875   -54095.818   -2565.0173   -1745.6032   -4096.1198    73.221442     63.41163    36.531202   -17671.216   -308228.32 
     360    1710.4886    169526.61    73.208333    73.208334    36.524661          120     477.0984    791.09525    -60963.72   -2047.9312    -2569.677   -3774.3762    73.208333    63.400277    36.524661   -19898.509   -308236.41 
     370    1697.2878    169437.63    73.195522    73.195523     36.51827          120    1179.5822    2293.3134   -65169.284   -1323.5373   -2711.2968   -4333.1943    73.195522    63.389183     36.51827   -20565.463    -308200.5 
     380    1717.6263    169350.59    73.182987    73.182988    36.512016          120      116.933    4206.1838   -66653.016   -253.47581   -3336.1766   -2557.3191    73.182987    63.378327    36.512016   -20776.633   -308230.89 
     390    1705.3598    169265.42    73.170717    73.170718    36.505894          120      -416.84    4283.7558   -64754.295   -679.32207   -2710.4832   -1738.6257    73.170717    63.367701    36.505894   -20295.793   -308198.74 
     400    1695.4653    169182.12    73.158712    73.158712    36.499905          120     2546.183    5023.2812   -58415.194   -713.17041   -1066.5129    473.16559    73.158712    63.357304    36.499905   -16948.576   -308171.29 
     410    1717.9239    169100.86    73.146996    73.146997     36.49406          120    5325.2188    5383.7948   -53484.619   -618.75115   -1161.7609   -599.32105    73.146996    63.347158     36.49406   -14258.535   -308207.01 
     420    1736.0856    169021.82    73.135598    73.135598    36.488373          120    9695.0558    7563.4861   -48243.416    482.77174   -1360.7848   -1169.9287    73.135598    63.337286    36.488373   -10328.291   -308234.69 
     430    1728.5356    168945.21    73.124547    73.124548    36.482859          120       8533.8    8327.9616   -44880.604    1817.6344   -1602.4387   -1414.7701    73.124547    63.327716    36.482859   -9339.6143   -308214.35 
     440    1732.0748       168871    73.113839     73.11384    36.477517          120    7465.0739    8770.9905   -46156.478    550.76436   -2691.1901   -1081.4425    73.113839    63.318443    36.477517   -9973.4711   -308216.43 
     450    1749.5614       168799    73.103446    73.103447    36.472332          120    6529.4806    9175.7946   -50049.066    -1411.293    -2108.639    2404.4391    73.103446    63.309442    36.472332    -11447.93   -308246.54 
     460     1741.659    168728.91    73.093326    73.093327    36.467283          120    7061.6185    6884.4001   -55827.934   -1624.2873   -2063.5632    981.43582    73.093326    63.300678    36.467283   -13960.638   -308229.49 
     470     1736.526    168660.38    73.083429     73.08343    36.462345          120    8434.0785    7764.3028    -57904.07   -652.63788   -1970.9733   -328.92192    73.083429    63.292107    36.462345   -13901.896   -308220.64 
     480    1745.1007    168593.29    73.073738    73.073739     36.45751          120    9018.3538    8887.9205   -57956.279   -1532.0588   -2696.3512    -1805.457    73.073738    63.283714     36.45751   -13350.002   -308238.59 
     490    1736.3052    168527.58    73.064244    73.064244    36.452773          120    9483.2803    8439.3553   -56629.042   -1587.4149   -3620.4524   -550.52581    73.064244    63.275492    36.452773   -12902.135   -308223.46 
     500    1746.3371    168463.18    73.054935    73.054936    36.448129          120    8927.1887    8912.7921   -53212.855   -349.90727   -3130.5879   -858.33047    73.054935     63.26743    36.448129   -11790.958   -308247.39 
     510    1725.2581    168400.09    73.045814    73.045815    36.443579          120     9679.337    11366.586   -49260.454    632.10573   -1991.5013   -1229.6156    73.045814    63.259532    36.443579   -9404.8436   -308212.13 
     520     1727.218    168338.38    73.036891    73.036892    36.439127          120    8492.0739    10314.966   -48045.037   -394.18264   -2122.0296   -2549.3327    73.036891    63.251804    36.439127    -9745.999   -308223.03 
     530    1735.4887    168277.97    73.028154    73.028154    36.434767          120    11115.562    12565.811   -47163.501    21.322649   -2668.2541   -1732.0538    73.028154    63.244237    36.434767   -7827.3759   -308246.73 
     540    1741.1395    168218.91    73.019609    73.019609    36.430504          120    12492.452    14947.308    -45952.84   -123.16017   -2046.9393   -601.99028    73.019609    63.236837    36.430504   -6171.0268   -308266.54 
     550    1738.2146    168161.24    73.011263    73.011264    36.426341          120     13762.89    13136.814   -46206.199   -333.18376   -1862.7327   -179.49708    73.011263    63.229609    36.426341   -6435.4982   -308271.61 
     560    1735.4372    168104.85    73.003101    73.003102    36.422268          120    15376.755    11522.568   -48290.045    425.50087   -2826.5353   -446.50473    73.003101    63.222541    36.422268   -7130.2408   -308278.56 
     570    1729.4497     168049.6    72.995102    72.995103    36.418277          120    15430.848    12595.599   -49306.502    -190.3595   -1421.0437    64.551283    72.995102    63.215613    36.418277   -7093.3516   -308279.24 
     580    1745.3954    167995.39    72.987252    72.987253    36.414361          120     14620.31    13148.794    -49163.79    696.43119   -884.13389   -2270.3466    72.987252    63.208815    36.414361    -7131.562   -308323.44 
     590    1710.7706    167942.16    72.979543    72.979544    36.410515          120    15231.567    15536.373   -49320.914    202.41562   -968.56535   -1288.0593    72.979543    63.202139    36.410515   -6184.3248   -308270.19 
     600    1712.1457    167889.92    72.971975    72.971976    36.406739          120    13108.288    15975.041   -47382.485   -4.8220315    -341.1118   -288.82896    72.971975    63.195585    36.406739   -6099.7188   -308286.52 
     610    1717.6638    167838.64    72.964545    72.964545    36.403032          120    14315.605     16790.23   -43356.788   -877.61815   -2549.7107    1531.3442    72.964545     63.18915    36.403032   -4083.6509   -308309.72 
     620    1718.7446    167788.39    72.957262    72.957263    36.399399          120    14435.227    15794.837   -42865.023   -283.24682   -2029.7863    1257.3775    72.957262    63.182843    36.399399   -4211.6528   -308323.65 
     630      1717.65    167739.14    72.950124    72.950125    36.395837          120    16882.404    16698.431   -40083.536   -259.91382   -839.55727    -272.1564    72.950124    63.176661    36.395837   -2167.5669   -308333.94 
     640    1712.1374    167691.01    72.943145    72.943146    36.392355          120    18874.659     18861.84   -38353.735    132.42833   -1983.8834   -136.79024    72.943145    63.170617    36.392355   -205.74534   -308335.68 
     650    1702.0158    167644.09    72.936342    72.936342    36.388961          120    17681.714    17099.627   -39251.539    765.38266   -3328.7505   -1068.2109    72.936342    63.164726    36.388961   -1490.0659   -308328.79 
     660     1719.685    167598.23    72.929691    72.929691    36.385643          120    15012.874    16520.109   -42443.727   -430.04189   -1456.7743   -2435.0088    72.929691    63.158965    36.385643   -3636.9146   -308374.62 
     670    1716.1531    167553.21     72.92316     72.92316    36.382385          120    16505.033    18385.454   -42436.211   -573.97346   -1013.6316   -1988.3601     72.92316     63.15331    36.382385   -2515.2414    -308379.2 
     680    1709.5615    167509.04    72.916751    72.916751    36.379187          120    16508.301    19033.215   -42633.917   -1708.2529   -596.99879   -692.89766    72.916751    63.147759    36.379187   -2364.1338   -308378.21 
     690    1706.9366     167465.7    72.910462    72.910463     36.37605          120    18674.785    18827.785   -42554.313    -972.8965   -819.85835   -1788.8453    72.910462    63.142313     36.37605    -1683.914   -308385.19 
     700    1703.7687    167423.22    72.904296    72.904297    36.372973          120     18684.51    18521.249   -42417.727    111.23093    -593.6093   -2130.8776    72.904296    63.136973    36.372973   -1737.3226   -308391.29 
     710     1695.493    167381.59    72.898253    72.898253    36.369958          120    19170.128    21254.901    -37691.65   -1154.7546   -1454.8285   -183.66544    72.898253     63.13174    36.369958    911.12632   -308386.06 
     720    1698.2198    167340.98    72.892358    72.892358    36.367017          120    20644.318    21442.112   -36091.482   -1238.4203   -1758.6169     240.2944    72.892358    63.126634    36.367017    1998.3159    -308401.8 
     730    1690.3602    167301.47     72.88662    72.886621    36.364154          120      19741.7     21985.77   -36023.115   -1502.6359   -2836.2654   -849.96563     72.88662    63.121666    36.364154    1901.4514   -308395.77 
     740    1693.0817    167263.03    72.881038    72.881038    36.361369          120    18768.992    26314.028   -34828.931    -2019.895   -499.13557    -2846.729    72.881038    63.116831    36.361369    3418.0297   -308409.98 
     750    1697.0734    167225.73     72.87562    72.875621    36.358666          120    20220.049    25332.515   -33548.747   -1647.4561   -1211.2222   -719.50525     72.87562    63.112139    36.358666    4001.2723   -308425.49 
     760    1686.7988    167189.59     72.87037     72.87037    36.356047          120    19839.937    24456.906   -37399.844    2416.3897   -2592.8133   -1929.8581     72.87037    63.107592    36.356047    2298.9998   -308413.52 
     770    1688.9765    167154.42    72.865259     72.86526    36.353497          120    19253.553    23324.484   -40834.528    1987.3277   -3392.7571   -2886.8824    72.865259    63.103166    36.353497    581.16954   -308424.74 
     780    1696.5133    167120.03    72.860263    72.860263    36.351004          120    18261.958    22472.352   -41098.229   -8.1753613   -3829.5713   -1658.9939    72.860263    63.098839    36.351004   -121.30639   -308446.95 
     790    1685.7166    167086.36    72.855368    72.855369    36.348562          120    18623.529    23348.524   -40166.449    117.68823   -2420.4435   -1876.5873    72.855368      63.0946    36.348562    601.86806   -308432.68 
     800    1691.0761    167053.42    72.850581    72.850582    36.346174          120     19959.13    24521.674   -35046.483   -807.82331   -1861.8589   -1152.5416    72.850581    63.090455    36.346174    3144.7733   -308449.48 
     810    1692.2226    167021.43    72.845931    72.845931    36.343854          120    21834.738    25690.258   -32371.436   -204.07329   -561.36655    533.06664    72.845931    63.086427    36.343854     5051.187   -308457.27 
     820    1688.3542    166990.56    72.841442    72.841443    36.341614          120    22302.171    28079.956   -31499.278    651.38363   -556.78106    1408.0437    72.841442     63.08254    36.341614    6294.2833   -308455.25 
     830    1693.4519    166960.84    72.837121    72.837121    36.339458          120    21602.272    23683.669   -36281.823    -631.1452   -2837.6689    1180.2548    72.837121    63.078798    36.339458    3001.3728   -308470.32 
     840    1674.9987       166932    72.832927    72.832927    36.337366          120    20585.157    24457.672   -37988.335   -1312.4159   -3793.0566   -71.508947    72.832927    63.075165    36.337366    2351.4979   -308439.33 
     850    1683.5508    166903.94    72.828846    72.828846     36.33533          120    21148.302    25980.588   -37322.001   -398.35745   -2875.3294   -114.14305    72.828846    63.071631     36.33533    3268.9632   -308459.68 
     860    1695.3468    166876.71    72.824885    72.824885    36.333354          120    22414.057    24185.464   -37055.631   -116.53391   -2095.0514   -2718.6173    72.824885    63.068201    36.333354    3181.2967   -308485.78 
     870    1685.6659     166850.3    72.821043    72.821044    36.331437          120     23786.82    24123.761   -37847.157   -1338.4481    181.69986   -2197.2495    72.821043    63.064874    36.331437    3354.4748   -308469.62 
     880    1679.5076    166824.71    72.817319    72.817319    36.329579          120    22517.383    25121.702   -36802.537   -1133.8969   -1301.9456   -2071.8115    72.817319    63.061649    36.329579    3612.1825   -308460.06 
     890    1684.8064    166799.92    72.813712    72.813713    36.327779          120    22784.666     25322.61   -35649.939   -1092.8989   -2796.3779   -3247.9911    72.813712    63.058525    36.327779    4152.4455   -308470.85 
     900    1685.4586    166775.97    72.810227    72.810227    36.326041          120    23830.135    23923.648   -35805.249   -2153.2376    -1816.204   -1479.7753    72.810227    63.055507    36.326041    3982.8449   -308473.66 
     910    1681.0877    166752.84    72.806862    72.806862    36.324362          120    26950.209     24521.51   -35036.047   -2186.4567   -2973.6087   -3101.3898    72.806862    63.052592    36.324362    5478.5575   -308465.56 
     920    1677.9155    166730.61    72.803625    72.803626    36.322747          120    23346.976    24787.882   -36192.869   -2230.0781   -3600.0019    -1923.377    72.803625    63.049789    36.322747    3980.6632   -308458.93 
     930     1696.527    166709.17    72.800505    72.800506     36.32119          120    23794.603    26224.734   -33868.404    -2199.633   -3487.2847    814.09096    72.800505    63.047087     36.32119    5383.6445   -308494.16 
     940    1694.4446    166688.64    72.797516    72.797517    36.319699          120    26624.035    27278.041    -30766.28    543.80412   -2799.9987   -984.37107    72.797516    63.044499    36.319699    7711.9319   -308488.12 
     950     1681.385    166669.16    72.794681    72.794682    36.318285          120    27430.523    26349.136   -32973.298    458.93089   -1645.6279    794.55949    72.794681    63.042044    36.318285    6935.4538   -308461.41 
     960    1686.3629    166650.67    72.791988    72.791989    36.316941          120    26838.213     24606.49   -35690.303   -2031.9928   -865.31695    370.91373    72.791988    63.039711    36.316941    5251.4666   -308469.43 
     970    1686.6088       166633    72.789416    72.789417    36.315658          120    25107.928     26329.96   -34904.673   -1515.4709   -1668.1084     311.6492    72.789416    63.037484    36.315658    5511.0715   -308467.13 
     980    1704.7804    166616.15    72.786961    72.786962    36.314433          120    25495.059    26663.383     -36623.8   -1714.0944    -2712.225    47.414625    72.786961    63.035358    36.314433    5178.2138   -308499.29 
     990    1701.7319    166600.08    72.784621    72.784622    36.313266          120    26486.864    26181.042   -34162.601   -1245.5504   -3270.8021   -1111.0759    72.784621    63.033332    36.313266    6168.4352    -308490.1 
    1000    1698.4618    166584.85    72.782404    72.782405     36.31216          120     26614.24    26435.201   -31507.048   -839.00168   -3051.8096   -415.40053    72.782404    63.031412     36.31216    7180.7978   -308479.67 
Loop time of 434.238 on 1 procs for 1000 steps with 14848 atoms

Performance: 0.199 ns/day, 120.622 hours/ns, 2.303 timesteps/s
100.0% CPU use with 1 MPI tasks x no OpenMP threads

MPI task timing breakdown:
Section |  min time  |  avg time  |  max time  |%varavg| %total
---------------------------------------------------------------
Pair    | 305.58     | 305.58     | 305.58     |   0.0 | 70.37
Bond    | 0.00055623 | 0.00055623 | 0.00055623 |   0.0 |  0.00
Kspace  | 14.579     | 14.579     | 14.579     |   0.0 |  3.36
Neigh   | 104.48     | 104.48     | 104.48     |   0.0 | 24.06
Comm    | 0.68612    | 0.68612    | 0.68612    |   0.0 |  0.16
Output  | 0.013763   | 0.013763   | 0.013763   |   0.0 |  0.00
Modify  | 8.7063     | 8.7063     | 8.7063     |   0.0 |  2.00
Other   |            | 0.1922     |            |       |  0.04

Nlocal:    14848 ave 14848 max 14848 min
Histogram: 1 0 0 0 0 0 0 0 0 0
Nghost:    46393 ave 46393 max 46393 min
Histogram: 1 0 0 0 0 0 0 0 0 0
Neighs:    9.87734e+06 ave 9.87734e+06 max 9.87734e+06 min
Histogram: 1 0 0 0 0 0 0 0 0 0

Total # of neighbors = 9877336
Ave neighs/atom = 665.23
Ave special neighs/atom = 0
Neighbor list builds = 309
Dangerous builds = 0
PPPM initialization ...
  using 12-bit tables for long-range coulomb (../kspace.cpp:321)
  G vector (1/distance) = 0.202273
  grid = 36 50 24
  stencil order = 5
  estimated absolute RMS force accuracy = 0.00101846
  estimated relative force accuracy = 7.07279e-05
  using double precision FFTs
  3d grid and FFT values/proc = 65395 43200
Setting up Verlet run ...
  Unit style    : metal
  Current step  : 0
  Time step     : 0.001
Per MPI rank memory allocation (min/avg/max) = 149.2 | 149.2 | 149.2 Mbytes
Step Temp Volume Cella Cellb Cellc CellGamma Pxx Pyy Pzz Pxy Pxz Pyz Lx Ly Lz Press PotEng 
       0    1698.4618    166584.85    72.782404    72.782405     36.31216          120    26619.942    26441.361     -31506.4   -838.68536   -3051.7893   -415.37632    72.782404    63.031412     36.31216    7184.9675   -308479.59 
  100000    1697.9631    169265.86    73.170781    73.170781    36.505926          120    17790.818    19451.424   -33613.953    495.81694   -3712.3126   -2874.1108    73.170781    63.367756    36.505926    1209.4296   -308594.99 
Loop time of 42568.5 on 1 procs for 100000 steps with 14848 atoms

Performance: 0.203 ns/day, 118.246 hours/ns, 2.349 timesteps/s
100.0% CPU use with 1 MPI tasks x no OpenMP threads

MPI task timing breakdown:
Section |  min time  |  avg time  |  max time  |%varavg| %total
---------------------------------------------------------------
Pair    | 29562      | 29562      | 29562      |   0.0 | 69.45
Bond    | 0.056523   | 0.056523   | 0.056523   |   0.0 |  0.00
Kspace  | 1474.7     | 1474.7     | 1474.7     |   0.0 |  3.46
Neigh   | 10576      | 10576      | 10576      |   0.0 | 24.84
Comm    | 68.774     | 68.774     | 68.774     |   0.0 |  0.16
Output  | 0.00012898 | 0.00012898 | 0.00012898 |   0.0 |  0.00
Modify  | 867.95     | 867.95     | 867.95     |   0.0 |  2.04
Other   |            | 19.08      |            |       |  0.04

Nlocal:    14848 ave 14848 max 14848 min
Histogram: 1 0 0 0 0 0 0 0 0 0
Nghost:    46017 ave 46017 max 46017 min
Histogram: 1 0 0 0 0 0 0 0 0 0
Neighs:    9.71847e+06 ave 9.71847e+06 max 9.71847e+06 min
Histogram: 1 0 0 0 0 0 0 0 0 0

Total # of neighbors = 9718472
Ave neighs/atom = 654.531
Ave special neighs/atom = 0
Neighbor list builds = 31416
Dangerous builds = 0
 
All done!
Total wall time: 11:56:44
