LAMMPS (16 Mar 2018)
Reading data file ...
  triclinic box = (0 0 0) to (9.208 7.97436 18.376) with tilt (-4.604 0 0)
  1 by 1 by 1 MPI processor grid
  reading atoms ...
  116 atoms
Finding 1-2 1-3 1-4 neighbors ...
  special bond factors lj:   0          0          0         
  special bond factors coul: 0          0          0         
  0 = max # of 1-2 neighbors
  0 = max # of 1-3 neighbors
  0 = max # of 1-4 neighbors
  1 = max # of special neighbors
Replicating atoms ...
  triclinic box = (0 0 0) to (73.664 63.7949 36.752) with tilt (-36.832 0 0)
  1 by 1 by 1 MPI processor grid
  14848 atoms
Finding 1-2 1-3 1-4 neighbors ...
  special bond factors lj:   0          0          0         
  special bond factors coul: 0          0          0         
  0 = max # of 1-2 neighbors
  0 = max # of 1-3 neighbors
  0 = max # of 1-4 neighbors
  1 = max # of special neighbors
  Time spent = 0.00482917 secs
PPPM initialization ...
WARNING: System is not charge neutral, net charge = -0.2048 (../kspace.cpp:302)
  using 12-bit tables for long-range coulomb (../kspace.cpp:321)
  G vector (1/distance) = 0.201681
  grid = 36 50 24
  stencil order = 5
  estimated absolute RMS force accuracy = 0.00105653
  estimated relative force accuracy = 7.33721e-05
  using double precision FFTs
  3d grid and FFT values/proc = 65395 43200
Neighbor list info ...
  update every 1 steps, delay 0 steps, check yes
  max neighbors/atom: 2000, page size: 100000
  master list distance cutoff = 15.3
  ghost atom cutoff = 15.3
  binsize = 7.65, bins = 15 9 5
  3 neighbor lists, perpetual/occasional/extra = 3 0 0
  (1) pair morse, perpetual
      attributes: half, newton on
      pair build: half/bin/newton/tri
      stencil: half/bin/3d/newton/tri
      bin: standard
  (2) pair buck, perpetual, copy from (1)
      attributes: half, newton on
      pair build: copy
      stencil: none
      bin: none
  (3) pair lj/cut/coul/long, perpetual, copy from (1)
      attributes: half, newton on
      pair build: copy
      stencil: none
      bin: none
Setting up Verlet run ...
  Unit style    : metal
  Current step  : 0
  Time step     : 0.001
Per MPI rank memory allocation (min/avg/max) = 145.7 | 145.7 | 145.7 Mbytes
Step Temp Volume Cella Cellb Cellc CellGamma Pxx Pyy Pzz Pxy Pxz Pyz Lx Ly Lz Press PotEng 
       0          300    172711.88       73.664    73.664001       36.752          120      -200743    -200791.4   -272325.23    24.921543   -7.6308551     10.20218       73.664    63.794896       36.752   -224619.88   -308813.33 
      10    361.89045    172646.79    73.654746    73.654746    36.747383          120   -203103.69   -203206.16   -249565.64    114.94216   -17.784681   -176.61538    73.654746    63.786881    36.747383   -218625.16    -308963.1 
      20    628.29101    172455.59    73.627545    73.627545    36.733812          120   -200932.62   -200590.15   -189336.38    27.058628   -240.00364   -384.70979    73.627545    63.763325    36.733812   -196953.05   -309512.33 
      30    631.53423    172153.78    73.584568    73.584569     36.71237          120   -173403.93   -173021.98   -109506.29   -202.35136    -807.7951   -450.18134    73.584568    63.726106     36.71237    -151977.4   -309573.99 
      40     411.2807    171773.65    73.530369    73.530369    36.685329          120   -129498.92   -129707.39   -31109.992   -628.24797   -1129.7383   -485.23964    73.530369    63.679168    36.685329     -96772.1    -309189.5 
      50    502.47537    171356.84    73.470847    73.470847    36.655633          120   -90469.016   -91047.437   -1333.4896   -632.62594   -1161.0986   -603.51774    73.470847    63.627621    36.655633   -60949.981   -309387.66 
      60    796.40579    170936.25    73.410686    73.410687    36.625618          120   -67137.185   -66975.638   -40804.971   -664.54779   -2044.3527   -461.82991    73.410686     63.57552    36.625618   -58305.931   -309980.74 
      70    962.37527    170526.28     73.35195    73.351951    36.596314          120   -51457.071   -51343.856   -104921.98   -1648.1022   -2399.3793   -502.42559     73.35195    63.524653    36.596314   -69240.969   -310356.98 
      80    820.19379    170130.61    73.295174    73.295174    36.567987          120   -42381.165   -43315.219    -150713.5   -1741.2709   -2829.6407    32.602666    73.295174    63.475483    36.567987   -78803.294   -310147.87 
      90    560.59891    169750.52     73.24055     73.24055    36.540735          120   -37539.247   -38158.294   -164356.38   -1884.4426   -3288.5098   -447.20362     73.24055    63.428177    36.540735   -80017.973   -309699.89 
     100    585.98124    169389.05    73.188527    73.188528     36.51478          120   -22757.715   -22807.921   -143898.75   -1615.2225   -3031.3421   -884.94712    73.188527    63.383125     36.51478   -63154.795   -309789.15 
     110    757.20322    169054.17    73.140263    73.140264    36.490701          120   -3642.3057   -3840.7005   -101847.14   -1665.1367   -1975.3848   -995.40562    73.140263    63.341327    36.490701   -36443.383   -310163.82 
     120    757.85468    168754.53    73.097026    73.097027    36.469129          120     7249.155    7453.4893   -51804.579   -1680.6008   -1480.3182   -1234.0148    73.097026    63.303882    36.469129   -12367.312   -310215.93 
     130    654.29583    168494.17    73.059415    73.059415    36.450364          120    5929.3798    7393.7141   -12491.308   -1563.1593   -1506.8904   -1279.9892    73.059415     63.27131    36.450364    277.26212   -310060.92 
     140    610.46886    168270.38    73.027055    73.027056    36.434219          120    1294.9116    1482.9171    331.54418   -1141.2614   -1166.5172   -1203.4524    73.027055    63.243286    36.434219    1036.4576   -310012.09 
     150    664.28691    168075.11    72.998796    72.998797    36.420121          120   -6210.9564   -4836.9177   -22593.928   -2008.0899   -797.71517   -447.53949    72.998796    63.218813    36.420121   -11213.934   -310152.52 
     160    724.36092    167895.94    72.972848    72.972848    36.407174          120   -16372.883   -14469.818   -58899.519   -1772.5593   -1222.6227   -554.81567    72.972848    63.196341    36.407174   -29914.073   -310314.31 
     170    706.47586    167719.73    72.947309     72.94731    36.394433          120   -20964.852   -18900.116   -89108.917    -933.8003   -2136.1734   -814.66654    72.947309    63.174223    36.394433   -42991.295   -310330.97 
     180    628.89731    167537.89    72.920937    72.920937    36.381275          120   -17893.561   -15557.869   -106459.81   -866.68137   -2250.2167   -1011.2687    72.920937    63.151384    36.381275   -46637.082    -310230.5 
     190    604.04461    167347.84    72.893353    72.893354    36.367513          120   -12867.309   -11215.969   -104914.21    36.637218   -1659.2306   -693.12438    72.893353    63.127496    36.367513   -42999.161   -310225.41 
     200    642.01922    167151.51    72.864836    72.864837    36.353286          120   -8288.1355    -7555.174   -85246.848   -395.80333    -2144.319   -791.92675    72.864836      63.1028    36.353286   -33696.719   -310340.86 
     210    652.89989    166953.77    72.836093    72.836093    36.338946          120   -4151.8674   -3287.5797   -61246.102   -902.67606   -2028.2519   -490.99722    72.836093    63.077907    36.338946   -22895.183   -310406.58 
     220    628.40281    166760.22    72.807935    72.807936    36.324897          120    -759.1518    239.27362   -41620.651   -791.49988   -1494.2587   -1693.6575    72.807935    63.053522    36.324897   -14046.843   -310401.89 
     230    603.68013    166574.97    72.780965    72.780965    36.311441          120   -99.160123    476.61832   -33677.258   -565.51495   -1032.5208   -2248.9725    72.780965    63.030165    36.311441   -11099.933   -310394.49 
     240    604.59302    166398.96    72.755321    72.755322    36.298647          120   -2226.0818   -1168.0045    -38128.83   -186.38669   -1679.3876   -2445.6974    72.755321    63.007957    36.298647   -13840.972   -310434.99 
     250      620.187    166230.17    72.730713    72.730713     36.28637          120   -4473.8414   -4254.8511   -52193.331    446.96274   -1807.6138   -2813.7671    72.730713    62.986646     36.28637   -20307.341   -310506.61 
     260    617.35245    166064.99    72.706614    72.706614    36.274347          120   -4959.6441   -6186.2465   -67467.829     880.0575   -1870.6731   -2936.4983    72.706614    62.965775    36.274347   -26204.573   -310543.93 
     270    592.00588    165900.36     72.68258     72.68258    36.262356          120   -3843.4336   -5791.8902   -75786.506    157.44834   -1823.4577   -1642.2436     72.68258    62.944961    36.262356   -28473.943   -310538.02 
     280    573.00906    165735.28    72.658464    72.658465    36.250324          120    -2625.313   -3271.7032   -75150.911   -65.329442   -1219.5403   -1145.5095    72.658464    62.924077    36.250324   -27015.976   -310541.21 
     290    573.47506     165570.8    72.634421    72.634422    36.238329          120    188.91764    851.14129   -66269.937   -8.3264611   -1464.1842   -896.54699    72.634421    62.903255    36.238329   -21743.293    -310581.4 
     300    574.68555    165409.73    72.610859     72.61086    36.226573          120    4111.6217     4802.854   -53072.612    559.89672   -1853.5371   -876.79171    72.610859    62.882849    36.226573   -14719.379   -310621.49 
     310    564.32642    165255.48    72.588282    72.588283    36.215309          120    6875.3918    7612.2081   -38849.626    1006.5345   -1942.4948    -1104.985    72.588282    62.863297    36.215309   -8120.6754   -310638.27 
     320     553.3025     165110.8    72.567092    72.567093    36.204737          120    7756.1215    8030.2797   -30636.034    1059.2821   -1872.4148   -1099.7984    72.567092    62.844946    36.204737   -4949.8777   -310652.36 
     330    548.82339    164976.45    72.547404    72.547405    36.194915          120    6622.3613    6615.1798   -30824.692    774.82499   -1915.9595   -1111.2298    72.547404    62.827896    36.194915   -5862.3835   -310678.94 
     340     546.9581    164851.11    72.529027    72.529028    36.185746          120    5550.5396     5523.427   -38789.334    409.98219   -1168.3706   -1384.8526    72.529027    62.811981    36.185746   -9238.4559   -310709.84 
     350    540.64652    164732.27    72.511594    72.511594    36.177048          120     5125.456    4624.1862   -50319.872     21.90427   -789.43008   -1268.3413    72.511594    62.796883    36.177048    -13523.41   -310732.15 
     360    526.00971    164617.27    72.494717    72.494718    36.168628          120    5308.3162    6031.6076    -57453.33   -612.98985   -929.35558   -1055.1414    72.494717    62.782267    36.168628   -15371.135   -310737.36 
     370    510.60022    164504.81    72.478205    72.478205     36.16039          120    7110.7724    8499.0011   -57572.135   -568.47035   -2164.3401   -1249.8529    72.478205    62.767967     36.16039   -13987.454   -310740.11 
     380    504.82257    164395.25    72.462111    72.462112    36.152361          120    9848.1472    11367.108   -52784.981   -1028.8333    -2184.238   -1237.3717    72.462111     62.75403    36.152361   -10523.242   -310760.65 
     390     505.1361    164289.92    72.446633    72.446633    36.144638          120    12138.086    12190.323   -44741.015   -1282.7261   -2058.1746   -1704.7861    72.446633    62.740625    36.144638   -6804.2019   -310791.64 
     400    497.02715    164190.27    72.431981    72.431982    36.137329          120    13781.507    13951.185   -35489.237   -503.20115   -1781.7371   -1336.4256    72.431981    62.727936    36.137329   -2585.5152   -310805.94 
     410    490.64917    164097.79     72.41838    72.418381    36.130543          120    15184.834    15592.772   -28496.003   -751.74672   -1970.8249   -1143.1824     72.41838    62.716158    36.130543    760.53453   -310822.24 
     420    490.05853    164013.34    72.405954    72.405955    36.124343          120    14625.953    15378.408   -28001.109   -611.38777   -1579.4877   -979.68735    72.405954    62.705397    36.124343     667.7504   -310849.54 
     430    486.65535    163936.16    72.394596    72.394596    36.118676          120    14035.924    14176.793   -31650.765    52.140713   -1902.7728    -252.3363    72.394596     62.69556    36.118676   -1146.0159   -310871.31 
     440    477.35528    163864.63    72.384065    72.384066    36.113423          120    12890.136    12769.978   -37938.248   -192.61618    -2029.953   -574.59402    72.384065     62.68644    36.113423   -4092.7115   -310881.46 
     450    466.11587    163796.84    72.374081    72.374082    36.108442          120    13016.073    12222.811   -42857.882    163.47826   -1157.1224   -543.86714    72.374081    62.677794    36.108442    -5872.999   -310887.04 
     460    459.97122     163731.5    72.364457    72.364457     36.10364          120    13786.573    13280.856   -44759.837    306.00016    35.483711   -694.35502    72.364457    62.669458     36.10364   -5897.4694    -310901.8 
     470    454.88424    163668.32    72.355148    72.355149    36.098996          120    15105.006     15146.81   -42844.056    254.76389    354.99224   -369.45353    72.355148    62.661397    36.098996   -4197.4135   -310916.88 
     480    448.76901     163607.9    72.346244    72.346245    36.094553          120    16818.264    16594.444   -37679.919    385.28554   -424.65088    328.76277    72.346244    62.653686    36.094553   -1422.4038   -310929.42 
     490    440.96423     163551.3      72.3379      72.3379     36.09039          120    17487.196    17890.711   -32049.583    782.88629   -15.774595    599.56612      72.3379     62.64646     36.09039    1109.4414   -310938.55 
     500    438.62515    163499.41    72.330249    72.330249    36.086573          120    18330.907    18880.622   -28132.165    342.88974    542.60597    1009.7321    72.330249    62.639833    36.086573    3026.4547   -310958.02 
     510    437.59809    163452.76    72.323369    72.323369     36.08314          120    19465.594    19171.429   -27767.136   -330.67346    463.74663    1483.7555    72.323369    62.633875     36.08314    3623.2955   -310979.12 
     520    427.35382    163411.17    72.317234    72.317234    36.080079          120    18873.803    18378.275   -30613.928   -863.27274    306.42164    1243.9764    72.317234    62.628562    36.080079    2212.7164   -310982.22 
     530    426.25153    163373.58    72.311689     72.31169    36.077313          120    18392.161    17969.261   -34866.383   -693.31311   -255.55228    762.86809    72.311689    62.623761    36.077313    498.34656   -311002.45 
     540      420.938    163338.88    72.306568    72.306569    36.074758          120    18504.842    18445.179   -37891.861   -441.16122   -875.00593    100.73287    72.306568    62.619326    36.074758   -313.94673   -311013.82 
     550    414.52937    163306.42    72.301778    72.301779    36.072369          120    18716.861    19988.226    -37985.64   -171.97291   -413.95462   -144.72785    72.301778    62.615177    36.072369    239.81551   -311022.26 
     560    411.39878    163276.27    72.297329    72.297329    36.070149          120     19275.78    21348.737   -35957.757   -293.70056    -671.4341   -155.50526    72.297329    62.611324    36.070149    1555.5865   -311037.45 
     570    406.72551     163248.9    72.293288    72.293289    36.068133          120    21771.459    20473.746   -32605.873   -1092.8785   -1362.3353    303.74724    72.293288    62.607825    36.068133    3213.1107    -311048.5 
     580    402.65051     163224.9    72.289746    72.289747    36.066366          120    21797.251    21716.442   -29109.259   -669.32191   -891.38937    121.07689    72.289746    62.604757    36.066366    4801.4782   -311060.26 
     590    397.29168    163204.84    72.286784    72.286785    36.064888          120    21831.442    22700.519   -26660.155   -380.66588   -912.80677    603.59325    72.286784    62.602192    36.064888    5957.2688   -311069.44 
     600    392.62448    163188.97    72.284441    72.284441    36.063719          120    21916.725    22423.749   -27391.822   -30.999926    -1296.241    460.37335    72.284441    62.600163    36.063719    5649.5508   -311079.53 
     610    388.50703    163176.88    72.282656    72.282657    36.062828          120    21542.417    21833.659   -29823.165    177.15175   -333.94882    464.21052    72.282656    62.598617    36.062828    4517.6369   -311090.18 
     620    381.98278     163167.8    72.281315    72.281316    36.062159          120    21476.949    21444.338   -33101.632    12.853647   -28.930364    709.43385    72.281315    62.597456    36.062159    3273.2185   -311095.41 
     630    378.30659    163160.92    72.280299      72.2803    36.061652          120    21005.537    20698.838   -35375.226   -873.65219   -643.20145    445.28897    72.280299    62.596576    36.061652    2109.7164   -311106.07 
     640    377.54692    163155.56    72.279507    72.279508    36.061257          120    21310.299    20696.596   -35843.312   -839.50682   -683.87764   -551.02119    72.279507     62.59589    36.061257     2054.528   -311121.57 
     650    373.75917    163151.58     72.27892     72.27892    36.060964          120    22031.883    20833.514   -34216.381   -495.48275   -1048.1926   -1293.3077     72.27892    62.595381    36.060964    2883.0054   -311131.08 
     660    370.20437    163149.31    72.278585    72.278586    36.060797          120    22758.494    21191.714   -30864.077   -440.42786   -1248.7475   -1422.6725    72.278585    62.595092    36.060797    4362.0436   -311140.37 
     670    366.52432    163149.39    72.278597    72.278597    36.060803          120    23165.904    21580.922   -27396.008    84.533475   -1651.2016   -1230.6591    72.278597    62.595102    36.060803    5783.6057   -311149.01 
     680    362.13803    163152.32     72.27903     72.27903    36.061019          120    22532.444    21499.359   -26643.705    295.76518   -1993.4234   -32.422439     72.27903    62.595476    36.061019    5796.0324   -311155.96 
     690    358.30041    163157.94     72.27986     72.27986    36.061433          120    21753.827      20595.9   -28752.086      107.664   -1717.3769    397.49899     72.27986    62.596195    36.061433     4532.547   -311163.41 
     700    352.77118    163165.58    72.280988    72.280989    36.061996          120    21852.052    20133.764   -30116.404    103.92415    -1187.454     611.3334    72.280988    62.597172    36.061996    3956.4705   -311167.53 
     710    347.67195    163174.81     72.28235    72.282351    36.062676          120    21964.478    20389.616   -32172.617    31.105311   -798.74565    852.09089     72.28235    62.598352    36.062676    3393.8255   -311171.46 
     720    348.30638    163185.26    72.283894    72.283894    36.063446          120    22229.367    20368.452   -33834.332   -20.607626    -291.5118    775.66032    72.283894    62.599689    36.063446    2921.1625   -311185.88 
     730    345.20801    163196.66    72.285577    72.285578    36.064286          120     22170.51    20114.376   -33859.492    322.82591   -118.85012    489.56563    72.285577    62.601147    36.064286    2808.4646      -311193 
     740    338.95113    163208.93    72.287388    72.287388    36.065189          120    21664.001    20660.797   -32416.741     230.6641   -549.22213    239.80233    72.287388    62.602715    36.065189    3302.6856   -311193.75 
     750    339.32773    163222.24    72.289354    72.289354     36.06617          120    22279.428    20927.307   -30931.963    191.20247    -963.6631    22.130183    72.289354    62.604417     36.06617    4091.5905   -311206.86 
     760    335.63216    163236.93    72.291522    72.291523    36.067252          120    22213.219    20456.631   -29633.311   -54.370681   -1159.9198     621.2511    72.291522    62.606295    36.067252    4345.5133   -311212.37 
     770     333.3784    163253.07    72.293904    72.293905     36.06844          120    21592.436     20326.22   -29373.399    7.7197997   -1472.8207    522.47932    72.293904    62.608358     36.06844    4181.7522   -311219.59 
     780    331.74544     163270.5    72.296476    72.296477    36.069723          120    21228.156    19363.665   -30108.299    149.13923   -1059.5278    548.92407    72.296476    62.610586    36.069723    3494.5076   -311228.18 
     790    327.78089    163288.84    72.299184    72.299185    36.071074          120    21659.128    18478.956   -31297.464    127.26868   -845.45778    764.12356    72.299184    62.612931    36.071074    2946.8738   -311231.67 
     800    326.46603    163307.78    72.301979     72.30198    36.072469          120    21522.235    18258.069   -32033.034   -62.170156   -367.20965    849.30518    72.301979    62.615352    36.072469    2582.4232   -311239.92 
     810    324.30526    163327.12    72.304833    72.304833    36.073892          120    21421.696     17974.96   -32149.296     184.2348   -861.72309     391.8871    72.304833    62.617822    36.073892    2415.7866   -311245.68 
     820    320.40811    163346.72    72.307725    72.307726    36.075336          120    20789.954    17978.844   -33407.585   -20.030538   -1458.8696    498.58332    72.307725    62.620328    36.075336    1787.0712   -311248.22 
     830    317.40891    163366.31    72.310617    72.310617    36.076778          120    20694.064    17916.988   -33530.576   -14.625003   -2096.1627    448.98553    72.310617    62.622832    36.076778    1693.4923   -311252.26 
     840    313.88828    163385.85    72.313499    72.313499    36.078216          120    21279.391    17962.403   -32680.516    413.52469   -2501.8766   -98.432869    72.313499    62.625328    36.078216    2187.0927   -311255.48 
     850    311.92904    163405.57    72.316408    72.316409    36.079668          120    21356.956    18077.053   -31228.724    273.93431   -1749.2444    258.10168    72.316408    62.627847    36.079668    2735.0951   -311260.32 
     860    310.80018    163425.75    72.319385    72.319386    36.081153          120    21305.032    18557.878   -31367.365    88.424166   -1344.0918    792.63391    72.319385    62.630425    36.081153    2831.8484    -311266.3 
     870    306.25436    163446.42    72.322433    72.322434    36.082674          120    20805.989    18584.543   -32629.051   -115.56873   -984.89636    875.16211    72.322433    62.633065    36.082674    2253.8271    -311265.3 
     880    306.13591    163467.26    72.325507    72.325507    36.084207          120    19759.606     18100.26   -34056.323   -852.03462   -918.00163    1087.0034    72.325507    62.635727    36.084207    1267.8475    -311272.9 
     890    305.94532    163487.81    72.328538    72.328539    36.085719          120    19254.871    17433.081   -34272.508   -777.75736   -787.75959    810.06588    72.328538    62.638352    36.085719     805.1481   -311279.54 
     900    301.28518    163507.85    72.331494    72.331494    36.087194          120    20092.038    16612.836   -34317.222   -733.15715   -1023.5964    1109.8106    72.331494    62.640912    36.087194     795.8838   -311277.86 
     910    303.74726    163527.39    72.334375    72.334375    36.088631          120    20451.234    16687.207    -34320.93   -202.72491   -966.69001    915.63653    72.334375    62.643407    36.088631    939.17067   -311289.32 
     920    301.16447    163546.54    72.337197    72.337198     36.09004          120    20552.885    16649.288   -33884.302     85.58219   -1467.6851    721.84316    72.337197    62.645851     36.09004     1105.957   -311290.56 
     930    298.92584    163565.37    72.339974    72.339975    36.091425          120    19824.693    16586.937   -33915.225    516.72528   -1337.5226    896.71842    72.339974    62.648256    36.091425    832.13469   -311292.61 
     940    298.87767    163583.77    72.342687    72.342687    36.092778          120     18349.21     16257.12    -34000.05    526.73872   -1637.5438    394.23843    72.342687    62.650605    36.092778    202.09323   -311298.17 
     950    293.35475    163601.48    72.345296    72.345297     36.09408          120    17944.038    16493.718   -34826.042    514.51226   -1710.9276    192.20792    72.345296    62.652865     36.09408   -129.42853   -311292.83 
     960     291.9501    163618.33     72.34778     72.34778    36.095319          120    17933.192    16526.614   -35671.032    627.98196   -1323.4611    1146.0894     72.34778    62.655016    36.095319   -403.74183   -311295.11 
     970    293.04628    163634.25    72.350126    72.350127     36.09649          120    17825.234    16151.252   -35088.618    439.19413   -1353.7331    1332.9081    72.350126    62.657048     36.09649   -370.71082   -311302.09 
     980    294.67028    163649.27    72.352341    72.352342    36.097595          120    18282.335    15947.753   -35436.333    219.28842   -1273.2253    1450.0131    72.352341    62.658966    36.097595   -402.08169   -311309.53 
     990    289.90264    163663.47    72.354433    72.354434    36.098639          120     18659.03    16200.247   -35387.023    321.69887   -841.69882    1259.1679    72.354433    62.660778    36.098639   -175.91527   -311304.15 
    1000    289.83684    163676.93    72.356417    72.356418    36.099629          120    18372.718    16224.084   -35854.062    554.39571    -1058.914    1008.5173    72.356417    62.662496    36.099629   -419.08668   -311307.63 
Loop time of 394.211 on 1 procs for 1000 steps with 14848 atoms

Performance: 0.219 ns/day, 109.503 hours/ns, 2.537 timesteps/s
100.0% CPU use with 1 MPI tasks x no OpenMP threads

MPI task timing breakdown:
Section |  min time  |  avg time  |  max time  |%varavg| %total
---------------------------------------------------------------
Pair    | 314.32     | 314.32     | 314.32     |   0.0 | 79.73
Bond    | 0.00057483 | 0.00057483 | 0.00057483 |   0.0 |  0.00
Kspace  | 14.584     | 14.584     | 14.584     |   0.0 |  3.70
Neigh   | 56.053     | 56.053     | 56.053     |   0.0 | 14.22
Comm    | 0.54273    | 0.54273    | 0.54273    |   0.0 |  0.14
Output  | 0.013779   | 0.013779   | 0.013779   |   0.0 |  0.00
Modify  | 8.5181     | 8.5181     | 8.5181     |   0.0 |  2.16
Other   |            | 0.1797     |            |       |  0.05

Nlocal:    14848 ave 14848 max 14848 min
Histogram: 1 0 0 0 0 0 0 0 0 0
Nghost:    46806 ave 46806 max 46806 min
Histogram: 1 0 0 0 0 0 0 0 0 0
Neighs:    1.00531e+07 ave 1.00531e+07 max 1.00531e+07 min
Histogram: 1 0 0 0 0 0 0 0 0 0

Total # of neighbors = 10053114
Ave neighs/atom = 677.069
Ave special neighs/atom = 0
Neighbor list builds = 166
Dangerous builds = 0
PPPM initialization ...
  using 12-bit tables for long-range coulomb (../kspace.cpp:321)
  G vector (1/distance) = 0.20256
  grid = 36 50 24
  stencil order = 5
  estimated absolute RMS force accuracy = 0.00100044
  estimated relative force accuracy = 6.94764e-05
  using double precision FFTs
  3d grid and FFT values/proc = 65395 43200
Setting up Verlet run ...
  Unit style    : metal
  Current step  : 0
  Time step     : 0.001
Per MPI rank memory allocation (min/avg/max) = 151.5 | 151.5 | 151.5 Mbytes
Step Temp Volume Cella Cellb Cellc CellGamma Pxx Pyy Pzz Pxy Pxz Pyz Lx Ly Lz Press PotEng 
       0    289.83684    163676.93    72.356417    72.356418    36.099629          120    18384.275    16236.251   -35847.774    554.76603   -1058.7398    1008.4616    72.356417    62.662496    36.099629   -409.08281   -311307.46 
  100000    297.45143    164482.59    72.474942    72.474942    36.158762          120    20213.756    16263.947   -36962.168    2210.7156    683.53691    134.23136    72.474942    62.765141    36.158762   -161.48811   -311411.76 
Loop time of 37358.9 on 1 procs for 100000 steps with 14848 atoms

Performance: 0.231 ns/day, 103.775 hours/ns, 2.677 timesteps/s
100.0% CPU use with 1 MPI tasks x no OpenMP threads

MPI task timing breakdown:
Section |  min time  |  avg time  |  max time  |%varavg| %total
---------------------------------------------------------------
Pair    | 30520      | 30520      | 30520      |   0.0 | 81.69
Bond    | 0.05663    | 0.05663    | 0.05663    |   0.0 |  0.00
Kspace  | 1473.6     | 1473.6     | 1473.6     |   0.0 |  3.94
Neigh   | 4441.8     | 4441.8     | 4441.8     |   0.0 | 11.89
Comm    | 51.041     | 51.041     | 51.041     |   0.0 |  0.14
Output  | 0.00012898 | 0.00012898 | 0.00012898 |   0.0 |  0.00
Modify  | 854.81     | 854.81     | 854.81     |   0.0 |  2.29
Other   |            | 17.88      |            |       |  0.05

Nlocal:    14848 ave 14848 max 14848 min
Histogram: 1 0 0 0 0 0 0 0 0 0
Nghost:    46696 ave 46696 max 46696 min
Histogram: 1 0 0 0 0 0 0 0 0 0
Neighs:    1.00033e+07 ave 1.00033e+07 max 1.00033e+07 min
Histogram: 1 0 0 0 0 0 0 0 0 0

Total # of neighbors = 10003308
Ave neighs/atom = 673.714
Ave special neighs/atom = 0
Neighbor list builds = 13112
Dangerous builds = 0
 
All done!
Total wall time: 10:29:14
