LAMMPS (16 Mar 2018)
Reading data file ...
  triclinic box = (0 0 0) to (9.208 7.97436 18.376) with tilt (-4.604 0 0)
  1 by 1 by 1 MPI processor grid
  reading atoms ...
  116 atoms
Finding 1-2 1-3 1-4 neighbors ...
  special bond factors lj:   0          0          0         
  special bond factors coul: 0          0          0         
  0 = max # of 1-2 neighbors
  0 = max # of 1-3 neighbors
  0 = max # of 1-4 neighbors
  1 = max # of special neighbors
Replicating atoms ...
  triclinic box = (0 0 0) to (73.664 63.7949 36.752) with tilt (-36.832 0 0)
  1 by 1 by 1 MPI processor grid
  14848 atoms
Finding 1-2 1-3 1-4 neighbors ...
  special bond factors lj:   0          0          0         
  special bond factors coul: 0          0          0         
  0 = max # of 1-2 neighbors
  0 = max # of 1-3 neighbors
  0 = max # of 1-4 neighbors
  1 = max # of special neighbors
  Time spent = 0.00352883 secs
PPPM initialization ...
WARNING: System is not charge neutral, net charge = -0.2048 (../kspace.cpp:302)
  using 12-bit tables for long-range coulomb (../kspace.cpp:321)
  G vector (1/distance) = 0.201681
  grid = 36 50 24
  stencil order = 5
  estimated absolute RMS force accuracy = 0.00105653
  estimated relative force accuracy = 7.33721e-05
  using double precision FFTs
  3d grid and FFT values/proc = 65395 43200
Neighbor list info ...
  update every 1 steps, delay 0 steps, check yes
  max neighbors/atom: 2000, page size: 100000
  master list distance cutoff = 15.3
  ghost atom cutoff = 15.3
  binsize = 7.65, bins = 15 9 5
  3 neighbor lists, perpetual/occasional/extra = 3 0 0
  (1) pair morse, perpetual
      attributes: half, newton on
      pair build: half/bin/newton/tri
      stencil: half/bin/3d/newton/tri
      bin: standard
  (2) pair buck, perpetual, copy from (1)
      attributes: half, newton on
      pair build: copy
      stencil: none
      bin: none
  (3) pair lj/cut/coul/long, perpetual, copy from (1)
      attributes: half, newton on
      pair build: copy
      stencil: none
      bin: none
Setting up Verlet run ...
  Unit style    : metal
  Current step  : 0
  Time step     : 0.001
Per MPI rank memory allocation (min/avg/max) = 145.7 | 145.7 | 145.7 Mbytes
Step Temp Volume Cella Cellb Cellc CellGamma Pxx Pyy Pzz Pxy Pxz Pyz Lx Ly Lz Press PotEng 
       0          500    172711.88       73.664    73.664001       36.752          120   -198346.54   -198432.34   -269959.57    40.669272   -12.715189    17.004727       73.664    63.794896       36.752   -222246.15   -308813.33 
      10    455.81246    172673.36    73.658523    73.658523    36.749267          120   -197903.01   -198006.17   -244050.06    135.32505   -26.132436   -224.87153    73.658523    63.790153    36.749267   -213319.75   -308750.63 
      20    738.67211    172560.83    73.642519    73.642519    36.741283          120   -191737.23   -191513.08   -182388.14     43.89914   -254.09608   -486.54744    73.642519    63.776293    36.741283   -188546.15   -309314.44 
      30    775.23863    172383.86    73.617336    73.617336    36.728719          120   -157491.59   -157321.41   -102595.47   -173.04291   -835.75872   -517.91438    73.617336    63.754484    36.728719   -139136.16   -309417.28 
      40    552.20836    172160.75    73.585562    73.585562    36.712866          120   -109765.15   -110227.14   -24139.125   -921.37463    -1136.242    -521.5378    73.585562    63.726966    36.712866   -81377.137   -309009.31 
      50    655.54385    171912.75    73.550211    73.550212    36.695229          120    -75802.21   -76715.199   -1770.1482   -549.34356   -1000.6998   -617.75694    73.550211    63.696352    36.695229   -51429.186   -309214.73 
      60    921.47506    171652.96    73.513143    73.513144    36.676736          120    -60917.54   -60583.298   -46669.619   -939.73581   -1881.9128   -555.25824    73.513143     63.66425    36.676736   -56056.819   -309739.61 
      70    1061.3857    171383.95    73.474721    73.474722    36.657566          120   -51783.014   -52063.337   -111338.88     -1867.73   -2434.0371   -746.07688    73.474721    63.630976    36.657566   -71728.411   -310046.92 
      80    928.27505    171104.48    73.434762    73.434763     36.63763          120   -47418.564   -49119.054   -156254.66   -1866.8323    -2504.088   -39.063895    73.434762     63.59637     36.63763   -84264.094   -309835.74 
      90    689.38402    170814.74    73.393288    73.393288    36.616938          120   -44337.726   -44826.158   -168250.13   -1891.3197   -2975.2647   -998.26011    73.393288    63.560452    36.616938    -85804.67   -309414.16 
     100    716.24644    170519.13    73.350925    73.350926    36.595803          120   -28811.029   -28794.895   -147049.02   -1755.9261   -2668.0069   -1308.4814    73.350925    63.523765    36.595803   -68218.315   -309497.26 
     110    877.55203    170227.43    73.309076    73.309076    36.574923          120   -9459.0997   -9767.4527   -106721.37   -1687.2804   -1134.6591   -1621.2096    73.309076    63.487523    36.574923   -41982.641   -309843.33 
     120    892.37611    169950.87    73.269354    73.269354    36.555105          120    1293.7528    1418.5162   -59481.051   -1577.1187   -727.23065   -1432.9652    73.269354    63.453122    36.555105   -18922.927   -309911.24 
     130     797.9187    169697.55    73.232931    73.232932    36.536934          120    1247.7547    2477.0656   -22039.557   -1375.9665   -979.92301    -1632.527    73.232931    63.421579    36.536934   -6104.9122   -309765.44 
     140    753.20357    169470.32     73.20023    73.200231    36.520619          120   -2883.8761   -2772.2491   -8315.3721   -842.74389   -821.88915   -1774.8446     73.20023    63.393259    36.520619   -4657.1658   -309707.59 
     150     795.9636    169267.01    73.170945    73.170946    36.506008          120   -10120.892   -8969.6061   -28164.694   -1871.3024   -261.17424   -1358.7797    73.170945    63.367898    36.506008   -15751.731   -309819.72 
     160    854.77482    169081.27    73.144173    73.144173    36.492651          120   -18653.681   -17696.308   -61533.638    -1757.925   -1220.2384   -1899.5977    73.144173    63.344712    36.492651   -32627.876   -309969.13 
     170    852.09605    168905.45     73.11881     73.11881    36.479997          120   -23138.115   -22085.829   -90875.283    -1209.103   -1913.2259   -1927.0981     73.11881    63.322747    36.479997   -45366.409   -310005.13 
     180    780.04733     168733.7    73.094018    73.094019    36.467628          120   -20892.264   -19291.154   -108954.21   -1274.4966   -2237.0142   -2094.3549    73.094018    63.301277    36.467628   -49712.543   -309906.55 
     190     751.3289    168563.25    73.069397    73.069398    36.455344          120   -16809.215   -15239.081   -109622.99    -464.2168   -2346.6435   -2000.4225    73.069397    63.279955    36.455344   -47223.762   -309887.07 
     200    785.24078    168393.83    73.044909     73.04491    36.443127          120    -12334.67   -12628.671   -92906.952   -1237.4905    -1952.945   -1983.3276    73.044909    63.258748    36.443127   -39290.098   -309987.91 
     210    805.54704    168226.88    73.020761    73.020762    36.431079          120   -8523.3531   -8623.0905   -70785.825   -1622.3989   -1685.0047   -1559.3372    73.020761    63.237835    36.431079   -29310.756   -310063.15 
     220    785.88366    168064.42    72.997249    72.997249    36.419348          120   -6058.7573   -4406.3419    -52587.96   -1511.5913   -1261.5183   -3117.1973    72.997249    63.217472    36.419348   -21017.687   -310061.76 
     230    764.45193    167907.91    72.974582    72.974583     36.40804          120   -5450.9942   -4397.7142   -43021.818   -1081.1313   -372.60314   -3546.6806    72.974582    63.197842     36.40804   -17623.509   -310053.54 
     240     758.5633     167757.3    72.952757    72.952757    36.397151          120   -7769.2023    -5998.063   -44950.948   -654.99293   -1688.4557   -3933.7203    72.952757    63.178941    36.397151   -19572.738   -310075.24 
     250    772.31029    167611.02    72.931545    72.931546    36.386568          120   -10590.986   -9705.8504   -56588.753    -208.1016   -2296.3266   -4220.0675    72.931545    63.160572    36.386568    -25628.53   -310135.65 
     260    779.85532    167466.52    72.910581    72.910582    36.376109          120    -11948.84    -12459.86   -70312.209   -411.39746   -2552.4072   -4625.8383    72.910581    63.142416    36.376109   -31573.636   -310186.67 
     270    759.30815    167321.53    72.889533    72.889533    36.365608          120   -11770.192   -13117.667   -81049.241    83.533368   -2528.3778   -3655.6657    72.889533    63.124188    36.365608   -35312.367   -310184.42 
     280    739.18221    167174.69    72.868205    72.868205    36.354967          120   -11311.979   -11221.081   -83277.287   -193.41712   -1713.0171   -2547.7783    72.868205    63.105717    36.354967   -35270.115   -310180.62 
     290    735.53261    167026.04      72.8466      72.8466    36.344188          120   -8044.3931   -6792.2177   -76285.018    175.03387   -1485.2671   -2887.9491      72.8466    63.087007    36.344188   -30373.876    -310207.4 
     300    743.19838    166877.06    72.824935    72.824936    36.333379          120   -4061.9232   -2769.6178   -64633.653    569.59105   -1284.1094   -2486.2386    72.824935    63.068245    36.333379   -23821.731   -310255.93 
     310    733.78886    166729.82     72.80351    72.803511     36.32269          120   -820.50576   -483.18031   -52376.332    625.32855   -277.32937   -2058.8547     72.80351     63.04969     36.32269   -17893.339      -310270 
     320    720.45355    166586.05    72.782579     72.78258    36.312247          120      1053.44   -447.89954   -42642.463    844.02003    -349.7192   -1656.3215    72.782579    63.031563    36.312247   -14012.308      -310276 
     330    711.66274    166446.78    72.762291    72.762291    36.302125          120    1135.5259    -133.6802   -39667.559    398.33885   -347.16478   -1961.6416    72.762291    63.013993    36.302125   -12888.571    -310290.2 
     340    713.90113     166312.1     72.74266    72.742661    36.292331          120   -731.43427   -423.76936   -44728.269    541.39063   -617.77794   -2578.2861     72.74266    62.996992    36.292331   -15294.491   -310325.07 
     350    714.38891    166181.05    72.723549    72.723549    36.282796          120   -2191.5577   -623.28756   -55250.652    441.72614   -530.16745    -3392.996    72.723549    62.980441    36.282796   -19355.166   -310356.68 
     360    702.63112    166052.25    72.704755    72.704756    36.273419          120   -3096.2323   -509.23646   -64528.036   -170.33155   -791.98958   -3030.7438    72.704755    62.964165    36.273419   -22711.168   -310364.71 
     370    690.55501    165924.64    72.686127    72.686127    36.264125          120   -1235.0626    409.78329   -67433.695   -659.29086   -2605.0099    -3721.607    72.686127    62.948033    36.264125   -22752.991   -310371.39 
     380    684.52115    165798.21     72.66766     72.66766    36.254912          120    1741.1157    2661.2273    -62109.36   -687.66993   -3554.0836   -3710.3118     72.66766     62.93204    36.254912   -19235.672    -310390.2 
     390    687.26132    165673.96    72.649503    72.649503    36.245853          120    5157.3625    5193.1789   -54442.958   -764.65777   -2793.8862   -2892.5067    72.649503    62.916316    36.245853   -14697.472   -310424.35 
     400    678.58909    165553.23    72.631852    72.631853    36.237047          120    7641.9848    7425.2399   -45613.682   -812.21333   -1783.4061   -2301.7511    72.631852     62.90103    36.237047   -10182.152   -310435.64 
     410    674.85291    165437.23    72.614883    72.614883    36.228581          120    9213.7881    8446.9331   -38598.374   -950.01845   -1118.9164   -2294.4994    72.614883    62.886334    36.228581   -6979.2175   -310455.87 
     420    668.55871    165326.62    72.598697    72.598697    36.220505          120    8449.9409    9454.4126   -36513.768    -354.1824   -1642.4515   -1365.1613    72.598697    62.872316    36.220505    -6203.138   -310471.02 
     430    665.81198    165221.33    72.583281    72.583282    36.212814          120    8519.7987     8714.298   -39678.894   -472.13327   -1545.5709   -1672.3789    72.583281    62.858966    36.212814    -7481.599   -310492.47 
     440    660.61992    165120.58    72.568525    72.568525    36.205452          120    7271.8082    7065.3776   -45628.797    65.564549   -1971.1809   -1556.2127    72.568525    62.846187    36.205452   -10430.537   -310509.42 
     450    651.24993    165023.24    72.554263    72.554264    36.198337          120    6242.6741    6936.2048   -49973.587    623.61761   -2529.9179   -1482.4339    72.554263    62.833836    36.198337   -12264.903   -310516.76 
     460    638.03134    164928.55    72.540383    72.540384    36.191412          120    8225.3008    9236.6823   -52586.911    1518.9293   -1857.2283    -2660.395    72.540383    62.821815    36.191412   -11708.309   -310517.33 
     470    636.50115    164836.46    72.526878    72.526879    36.184674          120    10452.549    11579.167   -51236.111     1953.831   -2371.8085   -2566.0029    72.526878     62.81012    36.184674   -9734.7985   -310538.46 
     480    634.27975    164747.36    72.513808    72.513809    36.178153          120    11646.272    13502.092   -46621.039    1435.1068   -2113.5962   -2013.1149    72.513808    62.798801    36.178153   -7157.5582   -310557.48 
     490    633.18259    164661.82    72.501256    72.501257    36.171891          120    12353.665    16080.809   -40955.579    1534.9675   -1656.3761   -1655.7568    72.501256     62.78793    36.171891   -4173.7017   -310579.39 
     500    623.20046    164580.47    72.489315    72.489315    36.165933          120    14118.229    16366.248   -36313.234     1335.328   -1502.1694   -1106.7419    72.489315    62.777589    36.165933   -1942.9189   -310583.35 
     510    615.99459    164503.69     72.47804    72.478041    36.160308          120    15451.748    16435.601   -34587.037    1039.4086   -1416.6174    168.08459     72.47804    62.767825    36.160308   -899.89589    -310592.4 
     520    617.71687    164431.41    72.467424    72.467425    36.155012          120    14428.832    15929.528   -35508.578    1294.4598    -1066.635    189.67302    72.467424    62.758631    36.155012   -1716.7392   -310617.17 
     530    606.28421    164363.08    72.457385    72.457385    36.150003          120    13477.431     15995.69   -39212.658    1805.9077   -1051.0494    549.98762    72.457385    62.749937    36.150003   -3246.5125    -310616.7 
     540     610.7385    164298.01    72.447821    72.447821    36.145231          120    14504.155    17171.386   -42945.934     1591.075   -1868.4602    565.31789    72.447821    62.741654    36.145231   -3756.7977   -310646.29 
     550     605.9774    164235.75    72.438668    72.438669    36.140665          120    15186.635    17279.663   -44149.673    1693.3677   -2324.8932   -276.55889    72.438668    62.733728    36.140665    -3894.458   -310658.15 
     560    596.92916    164176.11      72.4299    72.429901     36.13629          120    16190.397    19381.631   -41513.759    1675.3112   -1110.5903   -1446.8373      72.4299    62.726134     36.13629   -1980.5771   -310661.51 
     570    592.79847    164119.42    72.421561    72.421562     36.13213          120    17936.787     20236.86   -38674.639    665.38176   -2038.0562   -2178.7211    72.421561    62.718912     36.13213    -166.9972   -310673.74 
     580    583.57306       164066    72.413703    72.413704    36.128209          120    18679.705    20809.136   -34713.646    602.24434   -1468.5746   -2641.4772    72.413703    62.712107    36.128209    1591.7317   -310675.72 
     590    583.51024    164016.16     72.40637    72.406371    36.124551          120    18871.616    21024.787    -30728.53    727.17165   -1430.7918   -1871.2397     72.40637    62.705757    36.124551    3055.9575   -310694.61 
     600    580.62616     163970.1    72.399591    72.399592    36.121169          120    18984.273     21768.09   -30392.336    713.88508   -1846.2691   -1592.9594    72.399591    62.699886    36.121169    3453.3424    -310707.4 
     610    575.24385    163927.66    72.393345    72.393345    36.118052          120    19575.725    20409.644   -31483.634    756.05014   -1359.8242   -1876.9296    72.393345    62.694476    36.118052     2833.912   -310715.41 
     620    571.45934    163888.41    72.387566    72.387567    36.115169          120    18425.429     20178.98   -34140.864    537.74056   -580.32832   -1143.8701    72.387566    62.689472    36.115169    1487.8485   -310726.21 
     630    572.58982    163851.75    72.382168    72.382168    36.112476          120    17771.826    19027.008   -37096.709    242.57598   -1399.1206   -706.95105    72.382168    62.684797    36.112476    -99.29149   -310745.25 
     640    566.69283    163817.07    72.377062    72.377062    36.109929          120    18706.844    19105.403   -38608.206    1009.5266   -1566.1173   -1006.5383    72.377062    62.680375    36.109929   -265.31993   -310751.44 
     650    563.74457    163784.17    72.372216    72.372216    36.107511          120     18783.73    18979.498   -38366.804    942.58561   -1458.5768    -1634.936    72.372216    62.676178    36.107511   -201.19214      -310763 
     660    558.99022    163752.97     72.36762     72.36762    36.105218          120    18897.333    19535.956   -35844.601     32.71685   -1964.7112    -1844.302     72.36762    62.672198    36.105218    862.89617   -310769.88 
     670    557.14434    163723.66    72.363302    72.363303    36.103064          120    19469.014    20342.171   -32657.568    802.53574   -1646.5943   -1475.2762    72.363302    62.668459    36.103064    2384.5389   -310782.98 
     680    546.06963    163696.54    72.359306    72.359307     36.10107          120    19782.997     20351.06    -31781.14    1836.9036   -1757.7719     -1319.17    72.359306    62.664998     36.10107    2784.3057   -310777.22 
     690    546.51602    163671.62    72.355634    72.355635    36.099238          120    19964.363    20784.448   -31243.425    1288.3039   -897.46471   -1556.8479    72.355634    62.661818    36.099238    3168.4621    -310793.1 
     700    545.75502    163648.91    72.352288    72.352288    36.097568          120     19466.37    21091.795   -30085.415    1674.0524   -403.50183   -979.52851    72.352288     62.65892    36.097568    3490.9165   -310806.63 
     710    541.42876    163628.35    72.349257    72.349258    36.096057          120    18919.562    22013.509   -32423.987    1895.2314   -359.87788   -1502.8397    72.349257    62.656296    36.096057    2836.3614   -310812.29 
     720    538.69396    163609.65    72.346501    72.346501    36.094681          120    19164.357    21913.202   -33661.967    1494.9833   -416.32385   -1256.6297    72.346501    62.653908    36.094681    2471.8638    -310821.6 
     730    536.57403    163592.56    72.343983    72.343983    36.093425          120    19409.561    20832.321   -34202.514    1768.0652   -872.58431   -1071.1669    72.343983    62.651728    36.093425    2013.1226   -310831.36 
     740    530.53949    163576.95    72.341681    72.341681    36.092276          120    20104.609    21186.705   -33343.038    2276.1186   -1331.6882      -1162.6    72.341681    62.649734    36.092276    2649.4253   -310833.11 
     750     527.6252    163562.85    72.339603    72.339603     36.09124          120    20659.217    21981.003   -32823.966    1869.1484   -1254.8172   -1723.9575    72.339603    62.647934     36.09124    3272.0846   -310840.05 
     760    522.80236    163550.41    72.337768    72.337768    36.090324          120    22295.786    22487.424   -32676.697    1520.0129   -650.28493   -2279.3633    72.337768    62.646345    36.090324    4035.5046   -310843.07 
     770    518.62404    163539.75    72.336197    72.336198    36.089541          120    22742.903    22176.797   -31657.794    901.43769   -1195.6694    -1618.512    72.336197    62.644985    36.089541    4420.6351    -310847.1 
     780    522.10101    163530.92    72.334894    72.334895    36.088891          120    22349.951    22309.621   -31464.644   -234.05556   -2099.3238   -1097.6285    72.334894    62.643857    36.088891    4398.3092   -310864.59 
     790    517.94721    163523.82    72.333848    72.333849    36.088369          120    22264.517    22652.142   -31214.112    495.13019   -1036.8816    -536.7518    72.333848    62.642951    36.088369    4567.5155   -310868.42 
     800     515.2827    163518.41    72.333051    72.333051    36.087971          120    22432.991    22725.321   -32789.388    418.04175    -720.6561   -1453.9558    72.333051     62.64226    36.087971    4122.9749      -310874 
     810    516.11525    163514.49    72.332472    72.332472    36.087682          120    22423.521    21982.954   -34666.679    216.93213   -945.71518    -1639.332    72.332472    62.641759    36.087682    3246.5989   -310885.94 
     820    511.19297    163511.76     72.33207     72.33207    36.087481          120    22122.767    21682.225   -33959.566    428.82611   -1143.9547    -1437.806     72.33207    62.641411    36.087481     3281.809   -310886.42 
     830    503.93865    163510.17    72.331835    72.331835    36.087364          120    22722.043    21414.643   -33414.072     481.4083    -2476.499   -1565.8892    72.331835    62.641207    36.087364    3574.2046   -310882.04 
     840    502.03562    163509.72    72.331769     72.33177    36.087331          120    22646.234    21529.297   -33185.336    483.88569   -2090.2845   -1749.9846    72.331769     62.64115    36.087331    3663.3982   -310887.91 
     850    506.15179    163510.42    72.331872    72.331872    36.087383          120    21711.883    22860.405   -32337.517    1120.6438   -1263.0443   -1027.9748    72.331872    62.641239    36.087383    4078.2568   -310904.67 
     860    501.15429    163512.35    72.332157    72.332158    36.087525          120    22748.495    22748.713   -30736.563    1921.8584   -1518.5961    11.834919    72.332157    62.641486    36.087525    4920.2148   -310903.22 
     870    496.36844    163515.73    72.332655    72.332656    36.087773          120    23157.401    23412.834    -29706.67    1824.7336   -1995.9751   -74.484042    72.332655    62.641918    36.087773    5621.1885    -310901.7 
     880    496.29499    163520.66    72.333383    72.333383    36.088136          120    23700.149    22701.454   -30548.829    1672.4456   -1028.7125   -109.05859    72.333383    62.642548    36.088136     5284.258   -310908.17 
     890     494.7271    163527.02     72.33432     72.33432    36.088604          120    22906.679    22077.853   -31434.413    1102.1049   -1476.8879   -116.79101     72.33432    62.643359    36.088604    4516.7063   -310912.11 
     900    496.99198    163534.49    72.335422    72.335422    36.089154          120    21392.044    22061.028    -33262.79    809.78042   -1822.4396   -161.57226    72.335422    62.644314    36.089154    3396.7608   -310922.85 
     910    489.77161    163542.77    72.336643    72.336643    36.089763          120    21776.731    21833.128   -32204.409    647.95777    -1122.239   -321.76265    72.336643    62.645371    36.089763    3801.8167   -310915.23 
     920    494.29329    163551.86    72.337983    72.337983    36.090431          120    21592.113     21718.82   -32654.341    1040.3951   -1341.2859   -1370.2536    72.337983    62.646531    36.090431    3552.1974   -310929.44 
     930    490.09807    163561.73    72.339437    72.339437    36.091157          120    21838.833    21993.919   -31841.585    1162.4719   -1474.9679   -1822.2738    72.339437     62.64779    36.091157    3997.0558   -310926.67 
     940    491.13863    163572.42    72.341013    72.341013    36.091943          120    21197.733    21496.369   -31263.422    1299.2194   -1139.3233   -378.81195    72.341013    62.649155    36.091943    3810.2268   -310933.31 
     950       488.61    163583.87    72.342701    72.342701    36.092785          120    21154.844     21248.32   -31811.593    683.04571   -1710.6955   -1119.3208    72.342701    62.650617    36.092785    3530.5236   -310933.37 
     960    491.69318    163595.96    72.344483    72.344484    36.093675          120    19847.516    21038.556   -32407.374    300.65726   -1288.8205   -690.37995    72.344483    62.652161    36.093675    2826.2328   -310943.31 
     970    484.07173    163608.48    72.346328    72.346329    36.094595          120    18963.003     20163.95   -33724.181    109.84872   -820.06064   -105.99911    72.346328    62.653759    36.094595     1800.924   -310931.71 
     980    482.99557    163621.09    72.348187    72.348188    36.095523          120    18477.322     19774.73   -34522.517   -304.95621   -1374.5384   -158.32921    72.348187    62.655369    36.095523    1243.1783   -310932.47 
     990    485.77919    163633.62    72.350034    72.350035    36.096444          120    18733.366    19974.492   -35555.133    43.599443   -893.21695   -231.12414    72.350034    62.656968    36.096444    1050.9084   -310939.64 
    1000    486.75334    163646.05    72.351867    72.351867    36.097358          120    18877.611    20938.142   -35051.624    176.03595    -1354.148    -336.9522    72.351867    62.658555    36.097358     1588.043   -310943.31 
Loop time of 399.387 on 1 procs for 1000 steps with 14848 atoms

Performance: 0.216 ns/day, 110.941 hours/ns, 2.504 timesteps/s
100.0% CPU use with 1 MPI tasks x no OpenMP threads

MPI task timing breakdown:
Section |  min time  |  avg time  |  max time  |%varavg| %total
---------------------------------------------------------------
Pair    | 310.71     | 310.71     | 310.71     |   0.0 | 77.80
Bond    | 0.00055051 | 0.00055051 | 0.00055051 |   0.0 |  0.00
Kspace  | 14.518     | 14.518     | 14.518     |   0.0 |  3.64
Neigh   | 65.024     | 65.024     | 65.024     |   0.0 | 16.28
Comm    | 0.56048    | 0.56048    | 0.56048    |   0.0 |  0.14
Output  | 0.01379    | 0.01379    | 0.01379    |   0.0 |  0.00
Modify  | 8.3819     | 8.3819     | 8.3819     |   0.0 |  2.10
Other   |            | 0.1814     |            |       |  0.05

Nlocal:    14848 ave 14848 max 14848 min
Histogram: 1 0 0 0 0 0 0 0 0 0
Nghost:    46773 ave 46773 max 46773 min
Histogram: 1 0 0 0 0 0 0 0 0 0
Neighs:    1.00553e+07 ave 1.00553e+07 max 1.00553e+07 min
Histogram: 1 0 0 0 0 0 0 0 0 0

Total # of neighbors = 10055341
Ave neighs/atom = 677.219
Ave special neighs/atom = 0
Neighbor list builds = 192
Dangerous builds = 0
PPPM initialization ...
  using 12-bit tables for long-range coulomb (../kspace.cpp:321)
  G vector (1/distance) = 0.202563
  grid = 36 50 24
  stencil order = 5
  estimated absolute RMS force accuracy = 0.00100024
  estimated relative force accuracy = 6.94631e-05
  using double precision FFTs
  3d grid and FFT values/proc = 65395 43200
Setting up Verlet run ...
  Unit style    : metal
  Current step  : 0
  Time step     : 0.001
Per MPI rank memory allocation (min/avg/max) = 151.5 | 151.5 | 151.5 Mbytes
Step Temp Volume Cella Cellb Cellc CellGamma Pxx Pyy Pzz Pxy Pxz Pyz Lx Ly Lz Press PotEng 
       0    486.75334    163646.05    72.351867    72.351867    36.097358          120    18889.547    20949.909    -35045.15    176.66971   -1354.2088   -336.97891    72.351867    62.658555    36.097358    1598.1021   -310943.15 
  100000    503.69227    165354.59     72.60279    72.602791    36.222548          120    17022.165      20249.4    -38459.31    97.646084    758.98458   -1319.2221     72.60279    62.875862    36.222548   -395.91499   -311070.09 
Loop time of 38396 on 1 procs for 100000 steps with 14848 atoms

Performance: 0.225 ns/day, 106.656 hours/ns, 2.604 timesteps/s
100.0% CPU use with 1 MPI tasks x no OpenMP threads

MPI task timing breakdown:
Section |  min time  |  avg time  |  max time  |%varavg| %total
---------------------------------------------------------------
Pair    | 30221      | 30221      | 30221      |   0.0 | 78.71
Bond    | 0.056906   | 0.056906   | 0.056906   |   0.0 |  0.00
Kspace  | 1480.4     | 1480.4     | 1480.4     |   0.0 |  3.86
Neigh   | 5783.3     | 5783.3     | 5783.3     |   0.0 | 15.06
Comm    | 54.092     | 54.092     | 54.092     |   0.0 |  0.14
Output  | 0.00012779 | 0.00012779 | 0.00012779 |   0.0 |  0.00
Modify  | 838.67     | 838.67     | 838.67     |   0.0 |  2.18
Other   |            | 18.06      |            |       |  0.05

Nlocal:    14848 ave 14848 max 14848 min
Histogram: 1 0 0 0 0 0 0 0 0 0
Nghost:    46454 ave 46454 max 46454 min
Histogram: 1 0 0 0 0 0 0 0 0 0
Neighs:    9.94968e+06 ave 9.94968e+06 max 9.94968e+06 min
Histogram: 1 0 0 0 0 0 0 0 0 0

Total # of neighbors = 9949675
Ave neighs/atom = 670.102
Ave special neighs/atom = 0
Neighbor list builds = 17067
Dangerous builds = 0
 
All done!
Total wall time: 10:46:37
