LAMMPS (16 Mar 2018)
Reading data file ...
  triclinic box = (0 0 0) to (9.208 7.97436 18.376) with tilt (-4.604 0 0)
  1 by 1 by 1 MPI processor grid
  reading atoms ...
  116 atoms
Finding 1-2 1-3 1-4 neighbors ...
  special bond factors lj:   0          0          0         
  special bond factors coul: 0          0          0         
  0 = max # of 1-2 neighbors
  0 = max # of 1-3 neighbors
  0 = max # of 1-4 neighbors
  1 = max # of special neighbors
Replicating atoms ...
  triclinic box = (0 0 0) to (73.664 63.7949 36.752) with tilt (-36.832 0 0)
  1 by 1 by 1 MPI processor grid
  14848 atoms
Finding 1-2 1-3 1-4 neighbors ...
  special bond factors lj:   0          0          0         
  special bond factors coul: 0          0          0         
  0 = max # of 1-2 neighbors
  0 = max # of 1-3 neighbors
  0 = max # of 1-4 neighbors
  1 = max # of special neighbors
  Time spent = 0.00276494 secs
PPPM initialization ...
WARNING: System is not charge neutral, net charge = -0.2048 (../kspace.cpp:302)
  using 12-bit tables for long-range coulomb (../kspace.cpp:321)
  G vector (1/distance) = 0.201681
  grid = 36 50 24
  stencil order = 5
  estimated absolute RMS force accuracy = 0.00105653
  estimated relative force accuracy = 7.33721e-05
  using double precision FFTs
  3d grid and FFT values/proc = 65395 43200
Neighbor list info ...
  update every 1 steps, delay 0 steps, check yes
  max neighbors/atom: 2000, page size: 100000
  master list distance cutoff = 15.3
  ghost atom cutoff = 15.3
  binsize = 7.65, bins = 15 9 5
  3 neighbor lists, perpetual/occasional/extra = 3 0 0
  (1) pair morse, perpetual
      attributes: half, newton on
      pair build: half/bin/newton/tri
      stencil: half/bin/3d/newton/tri
      bin: standard
  (2) pair buck, perpetual, copy from (1)
      attributes: half, newton on
      pair build: copy
      stencil: none
      bin: none
  (3) pair lj/cut/coul/long, perpetual, copy from (1)
      attributes: half, newton on
      pair build: copy
      stencil: none
      bin: none
Setting up Verlet run ...
  Unit style    : metal
  Current step  : 0
  Time step     : 0.001
Per MPI rank memory allocation (min/avg/max) = 145.7 | 145.7 | 145.7 Mbytes
Step Temp Volume Cella Cellb Cellc CellGamma Pxx Pyy Pzz Pxy Pxz Pyz Lx Ly Lz Press PotEng 
       0         1000    172711.88       73.664    73.664001       36.752          120   -192355.41    -192534.7   -264045.42    80.038595   -25.426023    34.011095       73.664    63.794896       36.752   -216311.84   -308813.33 
      10    687.97045    172693.29    73.661357    73.661357    36.750681          120   -184750.97   -184841.36   -230118.09    151.21844   -33.846889   -323.51257    73.661357    63.792607    36.750681   -199903.47   -308224.73 
      20    997.13281    172639.92    73.653768    73.653769    36.746895          120   -170272.14    -170551.4   -165865.35      143.137   -146.96272    -655.5531    73.653768    63.786035    36.746895    -168896.3   -308823.77 
      30    1078.3781    172557.54    73.642051    73.642051    36.741049          120   -126118.61   -126390.97   -86359.187   -164.82392   -839.40292   -594.74905    73.642051    63.775887    36.741049   -112956.25   -308980.34 
      40    855.20313    172455.76    73.627569     73.62757    36.733824          120   -78862.099   -79701.106   -11716.718   -1491.5291   -1031.2689   -496.76451    73.627569    63.763346    36.733824   -56759.974   -308542.88 
      50    981.49557    172343.96    73.611655    73.611656    36.725885          120   -56058.733    -57238.82   -3518.1757   -348.62903   -450.83697   -703.60181    73.611655    63.749564    36.725885   -38938.576   -308773.21 
      60    1197.3212    172225.62    73.594803    73.594803    36.717476          120   -51525.511   -50935.427   -52797.983   -1404.7265     -1585.98    -825.9702    73.594803    63.734969    36.717476   -51752.974   -309178.34 
      70    1307.6112    172099.27    73.576801    73.576802    36.708495          120   -48143.669   -49407.428      -115175    -1981.919   -2222.5059   -760.21607    73.576801     63.71938    36.708495   -70908.698   -309396.21 
      80    1185.7246    171962.19    73.557262    73.557262    36.698747          120   -48645.025   -51070.981   -156224.06   -2040.5934   -1985.6042   -367.14331    73.557262    63.702458    36.698747   -85313.354   -309180.67 
      90    979.47064    171812.61    73.535928    73.535928    36.688103          120       -47558   -47349.233    -164908.6   -1568.4153   -2641.7073   -2028.6411    73.535928    63.683982    36.688103   -86605.278   -308801.06 
     100    1021.3494    171651.22    73.512895    73.512896    36.676612          120   -31952.514   -30877.738   -144217.92   -1419.8331   -2265.5656   -1819.0084    73.512895    63.664035    36.676612   -69016.058   -308895.43 
     110    1159.5846    171481.77    73.488697    73.488698    36.664539          120   -14034.019   -13627.212   -108054.78   -1855.1993   -573.43675   -2045.7493    73.488697    63.643079    36.664539   -45238.672   -309174.58 
     120    1180.6864     171309.2    73.464037    73.464038    36.652236          120   -4132.6187   -3855.8881   -65568.386   -1604.7017    95.805795   -1627.8396    73.464037    63.621723    36.652236   -24518.964    -309231.7 
     130    1112.3161    171137.89    73.439541    73.439542    36.640014          120   -3631.7262   -2080.9866   -31788.311   -1084.6549   -762.46347   -1653.9301    73.439541    63.600509    36.640014   -12500.341   -309118.64 
     140    1076.0355    170970.63    73.415608    73.415609    36.628074          120   -7052.4573   -6446.8557   -19193.386   -814.62587   -552.24396   -2882.5834    73.415608    63.579783    36.628074   -10897.566      -309064 
     150    1102.6166    170808.24    73.392357    73.392357    36.616473          120   -14297.345   -12955.121   -35480.279   -1717.4818    -740.4571   -1997.8008    73.392357    63.559646    36.616473   -20910.915   -309130.35 
     160    1157.8189     170649.6    73.369628    73.369628    36.605134          120   -21439.025   -19349.744   -64823.381   -2008.3047   -1249.5952   -3115.2091    73.369628    63.539962    36.605134    -35204.05   -309254.56 
     170    1172.1257    170492.84    73.347155    73.347156    36.593922          120   -24432.798   -23674.818   -92668.883   -1603.9034   -2125.6177   -3167.3036    73.347155    63.520501    36.593922     -46925.5   -309304.46 
     180     1109.129    170336.59    73.324742    73.324743    36.582739          120   -22063.243   -21005.338   -110266.41   -631.75743   -1905.0877   -2838.2943    73.324742     63.50109    36.582739   -51111.665    -309206.9 
     190    1089.9583    170180.63    73.302356    73.302357    36.571571          120   -20167.702   -16773.685   -111952.86   -887.43865   -3406.6055   -2368.9988    73.302356    63.481703    36.571571   -49631.415   -309192.12 
     200     1101.186    170025.73    73.280109     73.28011    36.560471          120   -15228.436   -14351.654   -96487.734    -1567.365   -2353.1973   -1856.0252    73.280109    63.462437    36.560471   -42022.608   -309232.81 
     210    1136.0665    169873.41    73.258221    73.258221    36.549551          120   -11791.852   -11858.756   -78217.539   -1200.8276   -2260.6172   -2098.5137    73.258221    63.443481    36.549551   -33956.049   -309320.09 
     220    1127.5476    169725.23    73.236914    73.236914    36.538921          120     -9124.21   -7061.0704   -62054.106    -1732.666     -1789.24   -3167.8456    73.236914    63.425028    36.538921   -26079.796   -309324.24 
     230    1112.3662     169582.4    73.216363    73.216364    36.528668          120   -9897.0433   -7082.6056   -53867.366   -1655.6834   -1127.5346   -5339.0195    73.216363    63.407231    36.528668   -23615.672   -309314.02 
     240    1104.8998    169445.19    73.196612    73.196612    36.518813          120   -10907.046   -9050.2955   -52065.385   -1054.7026    -1271.047   -6121.8468    73.196612    63.390126    36.518813   -24007.575   -309319.52 
     250    1116.2651    169313.23    73.177605    73.177606    36.509331          120    -13215.25   -12020.137   -59891.027    140.59237   -591.75269    -5638.678    73.177605    63.373666    36.509331   -28375.471   -309360.97 
     260    1128.7804     169185.5    73.159199    73.159199    36.500148          120   -17006.915   -13987.522   -71965.743   -188.89714   -1394.7843   -5829.0226    73.159199    63.357725    36.500148    -34320.06   -309406.35 
     270    1126.3835     169060.8     73.14122    73.141221    36.491178          120   -17288.028   -14682.298   -80285.082    437.33902   -1647.7195   -3737.7723     73.14122    63.342155    36.491178   -37418.469   -309423.36 
     280    1107.8682    168938.32    73.123553    73.123554    36.482364          120   -17111.994   -14904.181   -85728.604    1105.5591   -485.71186   -2173.9715    73.123553    63.326855    36.482364    -39248.26   -309409.72 
     290    1100.4897    168817.58    73.106129    73.106129     36.47367          120   -14305.378   -12644.568   -83112.028    975.86246   -1584.7513   -2885.7123    73.106129    63.311765     36.47367   -36687.325      -309417 
     300    1100.2133    168698.69    73.088963    73.088963    36.465106          120   -10112.739   -10253.404   -75439.591    97.565817   -1028.3754   -3459.8095    73.088963    63.296899    36.465106   -31935.244   -309436.37 
     310    1105.1066     168582.1    73.072122    73.072122    36.456704          120   -8564.6093   -7749.9745   -65769.615   -208.33254   -2144.0103   -3349.8778    73.072122    63.282314    36.456704     -27361.4   -309465.09 
     320     1095.839    168468.23    73.055665    73.055665    36.448493          120   -8119.8907   -6046.3481   -55999.035   -198.53689   -1502.4529   -3694.5021    73.055665    63.268062    36.448493   -23388.424   -309466.49 
     330    1097.4254    168357.34    73.039633    73.039634    36.440495          120   -6417.5218   -4610.8986   -50269.153    553.28089    -2097.931   -4939.6933    73.039633    63.254178    36.440495   -20432.525   -309488.38 
     340    1097.7592    168249.48    73.024032    73.024032    36.432711          120   -7208.8579   -5399.5664   -52774.456    703.59261   -1400.7809   -3906.6026    73.024032    63.240667    36.432711   -21794.294   -309507.38 
     350     1103.193    168144.12    73.008786    73.008786    36.425104          120   -7569.7016   -5084.8255   -59149.709    1548.3424   -165.16274   -2395.1218    73.008786    63.227464    36.425104   -23934.745   -309537.16 
     360    1099.3135    168040.59    72.993798    72.993798    36.417627          120   -7888.6629   -5093.3632   -67547.571    1441.8035   -407.85012   -2712.6511    72.993798    63.214484    36.417627   -26843.199   -309549.32 
     370    1083.0987     167938.2    72.978969    72.978969    36.410228          120   -5523.8298   -4341.6592   -71289.095    1411.6509   -1541.9075   -2006.2208    72.978969    63.201641    36.410228   -27051.528   -309537.41 
     380     1078.447    167836.64    72.964256    72.964256    36.402888          120   -3500.0186   -1769.4156   -70799.346    848.28446   -2226.5025   -1973.2456    72.964256      63.1889    36.402888    -25356.26   -309547.02 
     390    1075.5123    167735.99    72.949666    72.949667    36.395609          120   -1887.2143   -1035.9739    -67046.52   -745.89968   -858.03352   -2757.0185    72.949666    63.176265    36.395609   -23323.236   -309559.45 
     400    1074.0938    167636.39    72.935225    72.935226    36.388404          120   -304.50297    936.90064   -60316.262   -833.88137   -489.56904    -3495.857    72.935225    63.163759    36.388404   -19894.621   -309574.15 
     410    1076.3008    167538.23    72.920987    72.920987      36.3813          120    1237.4717    3741.6255   -51399.204    466.57329   -849.31223   -3519.9739    72.920987    63.151428      36.3813   -15473.369   -309595.15 
     420    1073.0335    167441.99     72.90702    72.907021    36.374332          120    3737.5087    4742.4229   -47848.208    39.202762    -1076.646   -3071.7206     72.90702    63.139332    36.374332   -13122.759   -309606.69 
     430    1072.2327    167347.82    72.893351    72.893352    36.367513          120    2907.4981    2202.1432   -47155.749   -281.12055   -1198.6297   -2344.1163    72.893351    63.127495    36.367513   -14015.369   -309622.88 
     440    1073.7478    167255.46    72.879938    72.879939    36.360821          120    1034.9436    992.41476   -50774.882   -286.19015   -1288.1665   -1665.0008    72.879938    63.115878    36.360821   -16249.174   -309642.53 
     450    1062.6308    167164.39    72.866709    72.866709     36.35422          120   -148.22178    185.14506   -55349.737   -536.24872    -2340.373   -1058.2671    72.866709    63.104421     36.35422   -18437.605   -309638.51 
     460     1063.582    167074.18    72.853599    72.853599    36.347679          120    936.57089    1557.1765    -58836.75   -480.63023   -1117.5329   -1000.1835    72.853599    63.093068    36.347679   -18781.001   -309657.04 
     470    1068.2116    166984.68    72.840588    72.840588    36.341188          120    2671.8208    3646.5612   -58203.912   -406.18287   -1210.7844   -441.57444    72.840588      63.0818    36.341188   -17295.177   -309682.27 
     480     1057.452    166896.03    72.827695    72.827696    36.334756          120    5243.2633    5138.8215   -56741.712   -117.41482   -1664.8319   -2309.3899    72.827695    63.070635    36.334756   -15453.209   -309677.83 
     490    1045.5073    166808.47    72.814957    72.814957      36.3284          120    8334.0043    7846.0438   -53032.709    480.24965   -1534.8433   -3021.5739    72.814957    63.059603      36.3284    -12284.22   -309670.52 
     500    1047.6553     166722.4     72.80243    72.802431    36.322151          120    8529.0204    8954.2854   -47034.802    1052.0678   -754.50972   -2623.2358     72.80243    63.048754    36.322151   -9850.4986   -309689.47 
     510    1046.7206    166638.11    72.790159     72.79016    36.316029          120    8981.3308    9422.9645   -44802.219   -170.32841     -768.788   -1846.2381    72.790159    63.038128    36.316029    -8799.308   -309701.95 
     520     1046.278    166555.67    72.778154    72.778154    36.310039          120    7710.2097    8614.9579   -45524.321     362.9402   -404.40804   -2529.2677    72.778154    63.027731    36.310039   -9733.0513   -309715.72 
     530    1044.1751    166474.89    72.766386    72.766386    36.304168          120    7817.5907    8594.0552   -47506.307   -398.01044   -292.39064   -3392.3194    72.766386    63.017539    36.304168   -10364.887   -309726.37 
     540    1043.5953     166395.6    72.754832    72.754833    36.298403          120    9218.1065    9841.2026   -47495.533   -617.03517   -816.22309   -2138.0513    72.754832    63.007533    36.298403   -9478.7414   -309739.88 
     550    1037.9415    166317.85    72.743499    72.743499    36.292749          120    10929.889    11220.169   -46438.566    340.98041   -2295.9364   -1674.0244    72.743499    62.997718    36.292749   -8096.1693   -309742.96 
     560    1045.3175    166241.76    72.732404    72.732404    36.287213          120    11714.518    11914.012   -46719.327    706.77764   -3217.9788   -1597.2243    72.732404     62.98811    36.287213   -7696.9326   -309771.23 
     570    1026.2284    166167.37    72.721552    72.721553      36.2818          120    12974.931    12031.948   -47254.384   -472.77352   -3064.7372   -2074.6199    72.721552    62.978712      36.2818   -7415.8348   -309747.62 
     580    1034.1863    166094.61    72.710937    72.710938    36.276504          120    12698.104    11950.019   -47019.843   -252.31025   -3393.0235   -2268.7496    72.710937    62.969519    36.276504   -7457.2399   -309776.47 
     590    1028.1396    166023.47    72.700554    72.700555    36.271323          120    12902.662    13801.329   -43295.737    586.02369   -2743.9623   -2440.1604    72.700554    62.960527    36.271323    -5530.582   -309777.93 
     600     1021.406    165954.11     72.69043     72.69043    36.266272          120    13147.967     12451.91   -42285.807   -300.49465   -1225.6922   -2190.7902     72.69043    62.951759    36.266272   -5561.9763   -309777.23 
     610    1021.2132    165886.51    72.680558    72.680558    36.261347          120    14743.429    12313.175   -42303.107    9.4673028   -738.51879   -1878.1098    72.680558     62.94321    36.261347   -5082.1674   -309789.48 
     620    1024.6364    165820.63    72.670935    72.670936    36.256546          120    14383.768    11513.462   -41032.532    702.56063   -1104.3504   -2318.1565    72.670935    62.934877    36.256546   -5045.1006   -309807.81 
     630    1028.6799    165756.46     72.66156     72.66156    36.251868          120    14133.916    13255.769   -40680.678    303.79945   -589.78877   -3551.3644     72.66156    62.926757    36.251868   -4430.3308   -309826.85 
     640    1019.7454    165693.97    72.652427    72.652428    36.247312          120    13439.995    13978.835   -42558.667    455.05623   -1540.8983   -4036.4484    72.652427    62.918848    36.247312   -5046.6123   -309821.08 
     650    1014.8567    165633.02    72.643518    72.643519    36.242867          120    14678.851    14170.368   -43989.918   -176.35233   -1454.1657   -3602.0871    72.643518    62.911133    36.242867   -5046.8997   -309823.34 
     660    1019.2801    165573.57    72.634826    72.634826     36.23853          120    15770.313    14954.524   -43210.034    176.24664   -909.54301   -2896.6328    72.634826    62.903605     36.23853   -4161.7322   -309842.89 
     670    1008.0573     165515.7    72.626363    72.626363    36.234308          120    16248.388    17213.384   -38759.175    599.04783    -1251.339   -2361.4364    72.626363    62.896276    36.234308   -1765.8008   -309832.01 
     680    1016.5481    165459.67    72.618166    72.618167    36.230219          120    17705.204    17224.214   -37324.621    1897.7689   -1482.8783   -3454.2688    72.618166    62.889178    36.230219   -798.40117   -309858.75 
     690    1015.5029    165405.58    72.610253    72.610253    36.226271          120    17286.263     17908.13   -35972.725    1517.6578   -2458.8218   -2540.9721    72.610253    62.882324    36.226271   -259.44411   -309866.11 
     700    1017.4632    165353.43    72.602621    72.602621    36.222463          120    17038.077    17139.418   -35892.646    327.50625   -3301.3451   -3352.2015    72.602621    62.875714    36.222463   -571.71676   -309879.47 
     710    1004.1291     165303.1    72.595253    72.595254    36.218787          120    15882.318    17252.863   -37489.908   -470.64048   -3169.4898   -2456.1388    72.595253    62.869334    36.218787   -1451.5755   -309863.09 
     720    1001.7915    165254.41    72.588126    72.588126    36.215231          120    17052.888    18379.826   -37029.654    347.92312   -1909.4348   -2287.8808    72.588126    62.863161    36.215231   -532.31339    -309867.6 
     730    1003.3667     165207.4    72.581241    72.581242    36.211796          120    18347.894    20198.428    -36638.99    1149.4843   -1317.1267   -2836.5665    72.581241    62.857199    36.211796    635.77735   -309879.74 
     740    1000.1693    165162.15    72.574614    72.574615     36.20849          120    18457.885    21474.434   -37420.433    1051.7056   -1347.6726   -3281.6815    72.574614     62.85146     36.20849    837.29536   -309881.13 
     750    997.42572    165118.67    72.568245    72.568245    36.205312          120    20021.287    21006.092   -36775.196     1343.908   -1990.2961   -2687.7776    72.568245    62.845944    36.205312    1417.3943   -309884.95 
     760    999.95745    165076.95    72.562134    72.562134    36.202263          120    19886.475    20474.259   -34387.045    1368.4793   -2014.6644   -2676.1311    72.562134    62.840652    36.202263    1991.2297   -309897.05 
     770    1000.6313    165037.06    72.556288    72.556289    36.199347          120    21811.996     21227.31   -33231.623    977.80117   -2280.0691   -3153.6191    72.556288     62.83559    36.199347    3269.2277   -309904.45 
     780    994.95999    164999.08    72.550721    72.550721    36.196569          120     22255.25    21406.756   -33287.978    320.23625   -3102.1083   -2250.0124    72.550721    62.830768    36.196569    3458.0093   -309900.64 
     790    994.44531    164962.95    72.545426    72.545427    36.193928          120    21389.312    21770.648    -31820.84    1276.8374   -3523.5473     -1788.25    72.545426    62.826183    36.193928     3779.707   -309905.63 
     800    988.80912    164928.71    72.540406    72.540407    36.191423          120      23547.5    24020.432   -29788.071    2122.8172    -3613.123   -3052.0846    72.540406    62.821835    36.191423    5926.6203   -309900.17 
     810     992.3785    164896.54    72.535689     72.53569     36.18907          120    24704.926    24867.296   -29730.877    2570.2915   -4956.0209   -3627.6521    72.535689     62.81775     36.18907    6613.7818   -309912.91 
     820    992.99695    164866.48    72.531281    72.531282    36.186871          120    24856.833    25463.312   -29966.093    1121.7566   -4441.5863   -3596.0662    72.531281    62.813933    36.186871     6784.684   -309919.14 
     830    997.38076    164838.49    72.527176    72.527177    36.184823          120    23889.403    25991.309   -30555.547    156.45683   -3535.9809   -3739.7484    72.527176    62.810378    36.184823    6441.7218   -309932.27 
     840    994.10172    164812.44    72.523356    72.523357    36.182917          120    24309.948    25262.756   -32624.575    380.06637    -1445.313   -3442.5185    72.523356    62.807069    36.182917    5649.3764   -309930.51 
     850    997.06914    164788.14    72.519792    72.519792    36.181139          120    23904.091    23891.055   -32639.093    1068.3493   -1980.9741   -3051.8686    72.519792    62.803983    36.181139    5052.0179   -309940.77 
     860    982.01159    164765.46    72.516464    72.516465    36.179478          120    23289.898     24730.13    -31448.97    1099.9139   -1371.7601   -2825.6904    72.516464    62.801101    36.179478    5523.6858   -309915.82 
     870    988.70875    164744.39    72.513372    72.513373    36.177936          120    23913.628    26403.859   -31141.537   -78.194214   -1001.4047    -1876.417    72.513372    62.798423    36.177936    6391.9831   -309931.86 
     880    988.97912    164724.99    72.510527    72.510527    36.176516          120    25453.588    26479.755   -30135.717   -974.57642   -1305.6226   -1401.0307    72.510527    62.795959    36.176516    7265.8755   -309935.24 
     890    987.55811    164707.32    72.507934    72.507935    36.175223          120    23892.231    25868.298   -29387.857   -366.92445   -1701.7007   -1155.7462    72.507934    62.793714    36.175223    6790.8907   -309934.69 
     900     987.4381    164691.29    72.505582    72.505582    36.174049          120    24159.083     26364.36   -30372.069     577.3613    -3719.564   -2145.5674    72.505582    62.791676    36.174049    6717.1246   -309936.58 
     910    993.58027    164676.81    72.503456    72.503456    36.172988          120    23158.893    26060.309   -31275.588     25.52309   -4098.0941    -1024.691    72.503456    62.789835    36.172988    5981.2045   -309949.88 
     920    992.34653    164663.71    72.501534    72.501534    36.172029          120    24430.946    25101.393   -32194.524    200.28469   -3736.8274   -1728.1439    72.501534    62.788171    36.172029    5779.2717   -309948.24 
     930     994.2693    164651.93    72.499805    72.499806    36.171167          120    23968.695    24878.516   -31136.261    24.055708   -1819.6151   -3056.2876    72.499805    62.786674    36.171167    5903.6502   -309952.49 
     940    984.61627    164641.43    72.498264    72.498264    36.170398          120    23387.589    25485.848   -31509.871   -261.99379    253.86148   -3173.5111    72.498264    62.785339    36.170398    5787.8554    -309934.6 
     950     989.4949    164632.18    72.496905    72.496906     36.16972          120    22931.674    27457.065   -29426.032    703.83714   -149.04914   -3551.7533    72.496905    62.784162     36.16972     6987.569   -309944.93 
     960    984.60952    164624.25    72.495742    72.495742     36.16914          120    23868.563    27100.166   -30492.191   -1297.0627    545.05681   -2062.6434    72.495742    62.783154     36.16914    6825.5128    -309934.4 
     970    989.02806    164617.63     72.49477     72.49477    36.168655          120    23546.204    24771.602   -29292.995   -1626.1495   -544.20322   -1789.3597     72.49477    62.782313    36.168655     6341.604   -309942.22 
     980     989.1902    164612.21    72.493974    72.493975    36.168258          120    22084.884    25715.213   -28843.955   -1350.4873   -1083.0089   -2200.9846    72.493974    62.781624    36.168258    6318.7138   -309941.09 
     990    989.26165    164607.96     72.49335    72.493351    36.167946          120    24283.625     27084.83     -28509.5     452.1421   -2596.4953   -2852.5381     72.49335    62.781083    36.167946    7619.6516   -309939.64 
    1000    996.03686    164604.99    72.492915    72.492916    36.167729          120    25236.038    25832.964   -28973.491   -581.75814   -3619.9444   -1504.2698    72.492915    62.780707    36.167729    7365.1702   -309950.26 
Loop time of 324.288 on 1 procs for 1000 steps with 14848 atoms

Performance: 0.266 ns/day, 90.080 hours/ns, 3.084 timesteps/s
100.0% CPU use with 1 MPI tasks x no OpenMP threads

MPI task timing breakdown:
Section |  min time  |  avg time  |  max time  |%varavg| %total
---------------------------------------------------------------
Pair    | 238.21     | 238.21     | 238.21     |   0.0 | 73.46
Bond    | 0.00021553 | 0.00021553 | 0.00021553 |   0.0 |  0.00
Kspace  | 10.864     | 10.864     | 10.864     |   0.0 |  3.35
Neigh   | 68.421     | 68.421     | 68.421     |   0.0 | 21.10
Comm    | 0.42563    | 0.42563    | 0.42563    |   0.0 |  0.13
Output  | 0.010658   | 0.010658   | 0.010658   |   0.0 |  0.00
Modify  | 6.2599     | 6.2599     | 6.2599     |   0.0 |  1.93
Other   |            | 0.1006     |            |       |  0.03

Nlocal:    14848 ave 14848 max 14848 min
Histogram: 1 0 0 0 0 0 0 0 0 0
Nghost:    46667 ave 46667 max 46667 min
Histogram: 1 0 0 0 0 0 0 0 0 0
Neighs:    9.99707e+06 ave 9.99707e+06 max 9.99707e+06 min
Histogram: 1 0 0 0 0 0 0 0 0 0

Total # of neighbors = 9997066
Ave neighs/atom = 673.294
Ave special neighs/atom = 0
Neighbor list builds = 247
Dangerous builds = 0
PPPM initialization ...
  using 12-bit tables for long-range coulomb (../kspace.cpp:321)
  G vector (1/distance) = 0.202468
  grid = 36 50 24
  stencil order = 5
  estimated absolute RMS force accuracy = 0.00100618
  estimated relative force accuracy = 6.98756e-05
  using double precision FFTs
  3d grid and FFT values/proc = 65395 43200
Setting up Verlet run ...
  Unit style    : metal
  Current step  : 0
  Time step     : 0.001
Per MPI rank memory allocation (min/avg/max) = 150.3 | 150.3 | 150.3 Mbytes
Step Temp Volume Cella Cellb Cellc CellGamma Pxx Pyy Pzz Pxy Pxz Pyz Lx Ly Lz Press PotEng 
       0    996.03686    164604.99    72.492915    72.492916    36.167729          120    25245.296    25842.645   -28970.099   -581.48043   -3620.0937    -1504.225    72.492915    62.780707    36.167729    7372.6141   -309950.14 
  100000    1003.7929    166958.48    72.836777    72.836778    36.339287          120    16636.744    19790.298   -37468.753    2060.9799   -287.02591    893.43291    72.836777      63.0785    36.339287   -347.23722   -310142.48 
Loop time of 30969.2 on 1 procs for 100000 steps with 14848 atoms

Performance: 0.279 ns/day, 86.025 hours/ns, 3.229 timesteps/s
100.0% CPU use with 1 MPI tasks x no OpenMP threads

MPI task timing breakdown:
Section |  min time  |  avg time  |  max time  |%varavg| %total
---------------------------------------------------------------
Pair    | 22567      | 22567      | 22567      |   0.0 | 72.87
Bond    | 0.022425   | 0.022425   | 0.022425   |   0.0 |  0.00
Kspace  | 1081.8     | 1081.8     | 1081.8     |   0.0 |  3.49
Neigh   | 6653       | 6653       | 6653       |   0.0 | 21.48
Comm    | 42.376     | 42.376     | 42.376     |   0.0 |  0.14
Output  | 9.8944e-05 | 9.8944e-05 | 9.8944e-05 |   0.0 |  0.00
Modify  | 615.55     | 615.55     | 615.55     |   0.0 |  1.99
Other   |            | 9.852      |            |       |  0.03

Nlocal:    14848 ave 14848 max 14848 min
Histogram: 1 0 0 0 0 0 0 0 0 0
Nghost:    46350 ave 46350 max 46350 min
Histogram: 1 0 0 0 0 0 0 0 0 0
Neighs:    9.85537e+06 ave 9.85537e+06 max 9.85537e+06 min
Histogram: 1 0 0 0 0 0 0 0 0 0

Total # of neighbors = 9855374
Ave neighs/atom = 663.751
Ave special neighs/atom = 0
Neighbor list builds = 24207
Dangerous builds = 0
 
All done!
Total wall time: 8:41:34
