LAMMPS (16 Mar 2018)
Reading data file ...
  triclinic box = (0 0 0) to (9.208 7.97436 18.376) with tilt (-4.604 0 0)
  1 by 1 by 1 MPI processor grid
  reading atoms ...
  116 atoms
Finding 1-2 1-3 1-4 neighbors ...
  special bond factors lj:   0          0          0         
  special bond factors coul: 0          0          0         
  0 = max # of 1-2 neighbors
  0 = max # of 1-3 neighbors
  0 = max # of 1-4 neighbors
  1 = max # of special neighbors
Replicating atoms ...
  triclinic box = (0 0 0) to (73.664 63.7949 36.752) with tilt (-36.832 0 0)
  1 by 1 by 1 MPI processor grid
  14848 atoms
Finding 1-2 1-3 1-4 neighbors ...
  special bond factors lj:   0          0          0         
  special bond factors coul: 0          0          0         
  0 = max # of 1-2 neighbors
  0 = max # of 1-3 neighbors
  0 = max # of 1-4 neighbors
  1 = max # of special neighbors
  Time spent = 0.00479293 secs
PPPM initialization ...
WARNING: System is not charge neutral, net charge = -0.2048 (../kspace.cpp:302)
  using 12-bit tables for long-range coulomb (../kspace.cpp:321)
  G vector (1/distance) = 0.201681
  grid = 36 50 24
  stencil order = 5
  estimated absolute RMS force accuracy = 0.00105653
  estimated relative force accuracy = 7.33721e-05
  using double precision FFTs
  3d grid and FFT values/proc = 65395 43200
Neighbor list info ...
  update every 1 steps, delay 0 steps, check yes
  max neighbors/atom: 2000, page size: 100000
  master list distance cutoff = 15.3
  ghost atom cutoff = 15.3
  binsize = 7.65, bins = 15 9 5
  3 neighbor lists, perpetual/occasional/extra = 3 0 0
  (1) pair morse, perpetual
      attributes: half, newton on
      pair build: half/bin/newton/tri
      stencil: half/bin/3d/newton/tri
      bin: standard
  (2) pair buck, perpetual, copy from (1)
      attributes: half, newton on
      pair build: copy
      stencil: none
      bin: none
  (3) pair lj/cut/coul/long, perpetual, copy from (1)
      attributes: half, newton on
      pair build: copy
      stencil: none
      bin: none
Setting up Verlet run ...
  Unit style    : metal
  Current step  : 0
  Time step     : 0.001
Per MPI rank memory allocation (min/avg/max) = 145.7 | 145.7 | 145.7 Mbytes
Step Temp Volume Cella Cellb Cellc CellGamma Pxx Pyy Pzz Pxy Pxz Pyz Lx Ly Lz Press PotEng 
       0           20    172711.88       73.664    73.664001       36.752          120    -211290.6   -211286.64   -282276.42    2.8743946  -0.51278803   0.67861458       73.664    63.794896       36.752   -234951.22   -309191.56 
      10    224.31875    171711.09    73.521441    73.521442    36.680875          120   -208710.24   -208747.69   -256409.36    36.531903    3.2216941   -47.999875    73.521441    63.671436    36.680875   -224622.43   -309770.97 
      20    440.74425    169433.32    73.194902    73.194903     36.51796          120   -194417.16   -194275.73   -178620.23    10.661517    -60.44412   -104.96863    73.194902    63.388645     36.51796   -189104.37   -310533.22 
      30    322.96064    167500.53    72.915517    72.915517    36.378571          120   -172088.74   -171836.55    -83697.97   -87.293891   -228.47792   -128.85699    72.915517    63.146691    36.378571   -142541.09   -310614.45 
      40    74.510454    165886.56    72.680564    72.680565     36.26135          120   -147227.93   -147003.63   -6242.4992   -201.19565   -477.47739   -158.34895    72.680564    62.943216     36.26135   -100158.02   -310296.15 
      50    128.34997    164511.58      72.4792      72.4792    36.160887          120    -123394.2   -123177.29    20347.551   -254.55101   -701.04071   -256.55208      72.4792    62.768829    36.160887   -75407.981   -310477.15 
      60     396.3247    163412.37     72.31741    72.317411    36.080168          120   -98590.729   -98306.485   -20729.102   -374.81557   -1223.0539   -335.24033     72.31741    62.628715    36.080168   -72542.105    -311087.6 
      70     491.1404    162467.82    72.177806    72.177806    36.010517          120   -67794.511   -67429.502   -83367.905   -374.24585   -1925.4277   -204.64633    72.177806    62.507814    36.010517   -72863.973   -311427.39 
      80    346.04051    161595.81    72.048441    72.048442    35.945975          120   -32354.234    -32043.99   -110864.65   -404.68883    -2391.097    2.6095136    72.048441    62.395781    35.945975   -58420.957      -311294 
      90    214.55897    160830.79    71.934565    71.934566    35.889161          120   -1682.4289   -1501.7456   -98116.009   -672.48933   -2797.6983    162.60992    71.934565    62.297162    35.889161   -33766.728   -311121.93 
     100    340.48598    160247.13    71.847442    71.847443    35.845694          120    28625.055    28915.759   -56366.909   -1068.5896   -3166.4899    266.65575    71.847442    62.221711    35.845694    391.30176   -311431.16 
     110    406.44972    159932.08    71.800327    71.800327    35.822187          120    49253.183    50269.083   -503.86892   -1141.4951    -3253.924    288.54138    71.800327    62.180908    35.822187    33006.132   -311657.96 
     120     297.5928    159934.01    71.800615    71.800616    35.822331          120    46578.391    48330.754     38722.29    -934.1574   -3714.7124    189.99828    71.800615    62.181157    35.822331    44543.812   -311546.84 
     130    212.16115    160194.97    71.839647    71.839648    35.841805          120    29836.328    31819.667    46356.069   -875.75645   -4312.1854     59.92444    71.839647     62.21496    35.841805    36004.021   -311450.13 
     140    243.76029    160580.84    71.897282    71.897282     35.87056          120    16503.418     18143.01    23796.021   -959.34582     -4586.28    -160.3939    71.897282    62.264873     35.87056    19480.816    -311570.2 
     150    292.01096    160950.53    71.952413    71.952414    35.898066          120    7581.2241    8772.2271   -19396.431   -861.22621   -4953.8971    -79.07743    71.952413    62.312619    35.898066   -1014.3266   -311735.67 
     160    268.81704    161189.69    71.988034    71.988035    35.915837          120    2042.5282      4057.13   -54484.485   -816.39202   -5150.4423    260.25948    71.988034    62.343467    35.915837   -16128.275   -311767.07 
     170     206.6156    161255.17     71.99778    71.997781      35.9207          120    4676.3927    7935.8442   -68038.635   -1146.9671   -4681.7617    348.42595     71.99778    62.351907      35.9207   -18475.466   -311708.09 
     180    187.64912    161188.74    71.987893    71.987894    35.915767          120    14392.628    18080.317   -63174.907   -1343.8317   -3702.9094    245.15558    71.987893    62.343345    35.915767   -10233.987   -311719.13 
     190    211.08925    161079.65     71.97165     71.97165    35.907663          120    22678.498    26182.992   -42805.562   -1189.8894   -2887.2334   -249.89342     71.97165    62.329278    35.907663    2018.6429   -311814.45 
     200     211.1734    161015.09    71.962033    71.962033    35.902865          120    24511.753    27991.267    -15171.99   -1103.2809   -2424.3161   -996.20119    71.962033    62.320949    35.902865    12443.677   -311870.18 
     210    172.89213    161047.33    71.966835    71.966835    35.905261          120    22725.014    25926.518    3015.4589   -750.23671   -2415.1812   -1373.9634    71.966835    62.325108    35.905261     17222.33   -311846.63 
     220    152.92987    161181.22    71.986773    71.986773    35.915208          120    19758.366    23030.606    3916.2223   -503.68816   -3123.1635   -1208.2423    71.986773    62.342375    35.915208    15568.398   -311847.72 
     230    159.50817    161381.11     72.01652     72.01652    35.930049          120     16497.24    19629.625   -9573.1741   -578.04161    -3677.514   -1169.5546     72.01652    62.368136    35.930049    8851.2303   -311897.09 
     240    164.04581    161587.17    72.047158    72.047158    35.945335          120    12153.377    14900.593   -29374.572   -715.04311   -4165.5221   -949.84193    72.047158     62.39467    35.945335   -773.53388   -311943.93 
     250    148.31021    161737.72    72.069526    72.069526    35.956495          120    9896.2281    11883.261   -45440.503    -652.0403   -4319.6688   -970.37186    72.069526    62.414041    35.956495   -7887.0047   -311949.82 
     260    128.71953    161801.04     72.07893     72.07893    35.961186          120    11014.315    12157.525   -54113.917   -580.51004    -4145.404   -981.77095     72.07893    62.422185    35.961186   -10314.026   -311943.35 
     270    122.92038    161782.68    72.076204    72.076204    35.959826          120    13317.305    14199.944   -51662.179   -461.56268   -3805.3218   -859.23804    72.076204    62.419824    35.959826     -8048.31    -311959.6 
     280    126.55076    161716.95    72.066441    72.066441    35.954955          120    16093.312     17336.38   -39497.335    -192.2201   -3262.8493   -642.69817    72.066441    62.411369    35.954955   -2022.5478   -311994.28 
     290    122.59478    161653.57    72.057025    72.057025    35.950258          120    18873.765    20679.522   -25468.905    4.0851394   -3002.8602   -770.07444    72.057025    62.403214    35.950258    4694.7941   -312014.93 
     300    110.46888    161634.85    72.054243    72.054243     35.94887          120    20095.895    21882.661   -16908.264    145.48529   -3099.2504   -1118.7636    72.054243    62.400805     35.94887    8356.7639   -312017.49 
     310    102.90796     161674.5    72.060135    72.060135    35.951809          120    18571.258    19791.296   -16322.881    63.477369   -3285.7981   -1550.0709    72.060135    62.405908    35.951809    7346.5577   -312025.78 
     320    102.63793    161753.59    72.071884    72.071884    35.957671          120    14918.264    15947.128   -22812.694   -274.40742   -3506.0932   -1777.1538    72.071884    62.416083    35.957671    2684.2325   -312046.76 
     330    101.38757    161833.89    72.083807    72.083807     35.96362          120    11947.612    13323.982   -33092.171   -452.55181   -4014.4576   -1836.2804    72.083807    62.426409     35.96362   -2606.8591   -312065.41 
     340    94.295379    161881.06     72.09081     72.09081    35.967113          120    11540.672    13417.719    -41583.95   -369.44431   -4167.8956   -1569.1245     72.09081    62.432473    35.967113   -5541.8529   -312071.83 
     350    86.379093    161882.25    72.090988    72.090988    35.967202          120    12716.296    15064.651    -44313.14   -616.82541   -4024.9786   -1330.0264    72.090988    62.432627    35.967202   -5510.7309   -312074.52 
     360     82.87947    161846.81    72.085726    72.085727    35.964577          120    14413.586    17089.945   -40201.288   -764.02261   -3682.6055   -1020.7177    72.085726    62.428071    35.964577   -2899.2525   -312083.82 
     370    83.004339    161799.25    72.078665    72.078665    35.961054          120    16695.611    19054.899   -32514.202   -777.44196   -3574.1326   -680.71543    72.078665    62.421956    35.961054    1078.7694   -312100.02 
     380    79.788473    161768.07    72.074034    72.074034    35.958744          120    18394.407    20035.812    -25397.47   -807.10509   -3607.6715    -569.1543    72.074034    62.417945    35.958744    4344.2496    -312109.5 
     390    73.989399    161771.59    72.074556    72.074557    35.959004          120    17994.541    19474.403   -21671.001   -831.19874    -3599.814    -565.4497    72.074556    62.418397    35.959004    5265.9809   -312112.73 
     400    69.813372    161809.71    72.080217    72.080218    35.961829          120    16523.244    18065.877   -22817.848   -1027.3865   -3772.4378   -967.94522    72.080217      62.4233    35.961829    3923.7579    -312117.8 
     410    69.058702     161867.5    72.088797    72.088798    35.966109          120    15247.739    16808.523   -27853.469   -1209.4392   -3718.6384   -1256.7419    72.088797     62.43073    35.966109    1400.9313    -312128.6 
     420      67.3132    161924.62    72.097275    72.097276    35.970339          120    14182.314     16037.88   -33968.002   -1281.2942   -3616.6272   -1320.6513    72.097275    62.438073    35.970339   -1249.2698   -312137.12 
     430    63.210741    161963.26     72.10301     72.10301      35.9732          120     13307.96    15325.253   -38219.596   -1241.8705   -3724.0133   -1157.1138     72.10301    62.443039      35.9732    -3195.461   -312140.54 
     440    59.715305    161973.77     72.10457    72.104571    35.973979          120    13354.433    15200.155   -39057.266   -1267.3395   -3882.8344   -1027.1489     72.10457     62.44439    35.973979   -3500.8925   -312144.16 
     450    58.202712    161958.98    72.102375    72.102375    35.972883          120    14358.386     16066.55   -36873.928    -1219.739   -3989.3355   -1033.1337    72.102375    62.442489    35.972883   -2149.6639   -312151.45 
     460    57.201015    161932.27    72.098411    72.098412    35.970906          120    15654.964    17324.188   -32660.334   -1051.1242    -3998.112   -1232.3079    72.098411    62.439056    35.970906    106.27278   -312158.98 
     470     55.17222    161910.69    72.095208    72.095209    35.969308          120    16546.573    18113.461   -28630.635   -917.41382    -3928.965   -1252.9063    72.095208    62.436282    35.969308    2009.7999   -312164.25 
     480    51.779368    161906.18    72.094539     72.09454    35.968974          120    16627.936    18309.279    -26681.25   -962.75545   -3864.8233   -1236.8833    72.094539    62.435703    35.968974    2751.9881   -312166.45 
     490    49.726587    161921.03    72.096743    72.096743    35.970073          120    16100.709    17841.072   -27311.405   -1065.9929   -3933.4502   -1216.4931    72.096743    62.437611    35.970073    2210.1254   -312170.42 
     500    49.054652    161948.42    72.100808    72.100808    35.972102          120    15207.982    16968.203   -30083.553   -1050.1766   -4303.6674   -1134.2438    72.100808    62.441132    35.972102    697.54424   -312176.59 
     510    47.751636     161976.2    72.104931    72.104931    35.974158          120    14268.742     16279.02   -33469.712   -822.66972   -4431.2213   -1105.5019    72.104931    62.444702    35.974158   -973.98308   -312181.11 
     520    46.016365    161993.18     72.10745     72.10745    35.975415          120    13941.553    16316.208   -35838.787   -769.71201    -4441.058   -1075.4211     72.10745    62.446884    35.975415   -1860.3418   -312184.55 
     530    44.667882    161995.06    72.107729    72.107729    35.975554          120    14537.263    16902.452   -36325.358   -756.67809   -4395.2705   -1221.6868    72.107729    62.447125    35.975554   -1628.5474   -312188.41 
     540    43.693578    161985.63     72.10633     72.10633    35.974856          120    15237.074    17626.247   -34759.495   -633.32192   -4146.1267   -1472.8916     72.10633    62.445914    35.974856   -632.05789      -312193 
     550    42.723277    161973.35    72.104508    72.104508    35.973948          120    15831.466     18281.79   -32266.442    -625.5201   -4041.1236   -1619.9895    72.104508    62.444336    35.973948    615.60473   -312197.34 
     560    41.275356    161967.24    72.103602    72.103602    35.973495          120    16292.567    18710.885   -30016.371   -715.25247   -3999.4167   -1757.4678    72.103602    62.443551    35.973495    1662.3604   -312200.68 
     570    39.625689    161973.44    72.104521    72.104521    35.973954          120    16300.374    18742.278   -29174.365   -776.58656   -4042.8155    -1827.521    72.104521    62.444347    35.973954    1956.0954   -312202.87 
     580    38.736196    161992.14    72.107296    72.107296    35.975338          120    15907.027    18344.322   -29909.232   -767.17229   -4159.0512   -1762.6215    72.107296    62.446751    35.975338    1447.3722    -312206.4 
     590      38.1269    162018.28    72.111173    72.111174    35.977273          120    15540.602    17971.408   -31545.694   -890.03835   -4355.5626    -1740.313    72.111173    62.450109    35.977273    655.43843      -312210 
     600    37.110486    162045.31    72.115185    72.115185    35.979274          120    15307.396    17712.916   -33385.155   -956.55457   -4642.4153   -1738.3027    72.115185    62.453583    35.979274   -121.61434   -312212.81 
     610    35.621141    162067.78    72.118517    72.118518    35.980937          120    15018.594    17543.533   -34562.349   -988.80195   -4791.1906   -1693.3187    72.118517    62.456469    35.980937   -666.74098   -312214.38 
     620    34.471285    162082.51    72.120702    72.120702    35.982027          120      14780.1    17435.488   -34891.304   -1012.8971   -4794.4333   -1603.7913    72.120702     62.45836    35.982027   -891.90547    -312216.7 
     630    33.174661     162089.2    72.121694    72.121695    35.982522          120    14859.409    17549.833   -34089.032   -1003.6884   -4705.0804   -1735.4025    72.121694     62.45922    35.982522    -559.9299   -312218.05 
     640    32.370412    162091.15    72.121983    72.121984    35.982666          120    15021.729     17744.43   -32760.937    -887.3364   -4569.9999   -2042.8487    72.121983     62.45947    35.982666    1.7405442   -312220.43 
     650    31.401777    162092.85    72.122235    72.122236    35.982792          120    15067.166    17956.721   -31550.862   -815.63659   -4508.8464   -2223.2723    72.122235    62.459689    35.982792    491.00838   -312222.23 
     660    30.572145    162097.68    72.122952    72.122952    35.983149          120    15033.623    17960.506    -30979.17   -770.39173   -4521.0038   -2192.6745    72.122952    62.460309    35.983149    671.65301    -312224.4 
     670    30.117909     162106.4    72.124245    72.124246    35.983795          120    14853.019    17750.289   -31399.695   -810.84759   -4605.3555   -2260.9454    72.124245    62.461429    35.983795    401.20439   -312227.06 
     680    29.956319    162116.67    72.125768    72.125768    35.984554          120    14573.223     17549.16       -32451   -919.89735   -4812.9972   -2410.1324    72.125768    62.462748    35.984554   -109.53887   -312229.95 
     690    29.251724    162124.82    72.126977    72.126978    35.985158          120    14479.139    17358.264   -33473.369   -979.78467   -5040.7139   -2432.3284    72.126977    62.463795    35.985158   -545.32184   -312231.47 
     700    28.585585    162128.04    72.127454    72.127455    35.985396          120    14582.109    17186.419   -34216.715   -1014.2017   -5103.1087   -2519.3117    72.127454    62.464209    35.985396   -816.06238   -312233.48 
     710    27.730691    162125.21    72.127034    72.127035    35.985186          120    14759.821    17284.443   -34151.082   -944.85757   -5189.8441   -2466.2051    72.127034    62.463844    35.985186   -702.27286   -312234.58 
     720      27.1342    162117.86    72.125944    72.125945    35.984643          120    14921.155    17581.837   -33397.912   -885.67439   -5096.7708   -2367.8879    72.125944    62.462901    35.984643   -298.30654   -312235.94 
     730    26.662571    162109.33     72.12468     72.12468    35.984012          120    15109.338    17814.186   -32431.185   -826.58518   -4894.3978   -2372.8887     72.12468    62.461806    35.984012    164.11277      -312238 
     740    26.215643    162103.04    72.123747    72.123747    35.983546          120    15320.536    17963.938   -31592.984   -776.99328    -4633.546   -2374.1081    72.123747    62.460998    35.983546    563.83031   -312239.71 
     750    25.674658    162101.46    72.123512    72.123513    35.983429          120    15463.657    17973.474   -31282.517   -767.05447   -4421.6342   -2485.3322    72.123512    62.460794    35.983429    718.20465   -312241.31 
     760    25.346068    162105.08     72.12405     72.12405    35.983697          120    15351.701    17940.072   -31534.651   -686.98909   -4419.5571   -2533.5647     72.12405     62.46126    35.983697    585.70735   -312243.19 
     770    24.819698    162112.33    72.125125    72.125125    35.984234          120    15133.583    17973.741   -32382.314   -610.20817   -4472.0227   -2638.1272    72.125125    62.462191    35.984234    241.67015   -312244.01 
     780    23.996393     162120.4    72.126321    72.126322    35.984831          120    15049.704    17891.508   -33327.068   -545.79943   -4608.7485    -2734.722    72.126321    62.463227    35.984831   -128.61866   -312244.39 
     790    23.512688    162126.56    72.127236    72.127236    35.985287          120     14815.56    17911.939    -33988.05   -518.87973   -4802.4751   -2754.8692    72.127236    62.464019    35.985287   -420.18372   -312245.61 
     800    23.156609    162129.11    72.127613    72.127613    35.985475          120    14554.024    18091.924   -33987.261    -480.1176   -4933.3561   -2708.1445    72.127613    62.464346    35.985475   -447.10465   -312246.89 
     810    22.839659    162128.24    72.127485    72.127485    35.985411          120    14345.218    18321.231   -33450.964   -370.12406   -4837.1803   -2573.6789    72.127485    62.464235    35.985411   -261.50522   -312248.16 
     820    22.421657    162125.67    72.127102    72.127103     35.98522          120    14423.895    18427.823   -32741.692   -237.80357   -4665.6953   -2303.3541    72.127102    62.463904     35.98522    36.675312   -312249.13 
     830    21.961961    162123.65    72.126803    72.126804    35.985071          120     14515.82    18379.425   -32010.766   -185.81669   -4545.7459   -2114.7592    72.126803    62.463644    35.985071    294.82634   -312250.01 
     840    21.657194    162123.86    72.126834    72.126835    35.985086          120     14554.74    18195.377   -31709.988   -229.23429   -4578.7596   -2075.5024    72.126834    62.463671    35.985086    346.70965   -312251.07 
     850    21.295651    162126.48    72.127223    72.127224    35.985281          120    14564.187    18069.249    -31821.14   -257.91089   -4565.3675   -2105.8351    72.127223    62.464008    35.985281    270.76508   -312251.87 
     860     20.93426    162130.67    72.127845    72.127845    35.985591          120    14614.025    18138.206    -32485.29   -331.56807   -4641.4354    -2155.821    72.127845    62.464546    35.985591    88.980372   -312252.58 
     870    20.530226    162135.07    72.128496    72.128497    35.985916          120    14722.005    18189.432   -32976.384   -375.58202   -4676.6707   -2264.2546    72.128496    62.465111    35.985916   -21.649156   -312253.23 
     880    20.462822    162138.79    72.129048    72.129049    35.986191          120    14763.603    18142.547    -33292.67   -386.91504   -4653.6627   -2404.0896    72.129048    62.465589    35.986191    -128.8402   -312254.23 
     890    20.218236     162141.2    72.129406    72.129407     35.98637          120    14861.553    18189.508   -33510.467   -495.87611   -4671.4804   -2486.9187    72.129406    62.465899     35.98637   -153.13496   -312254.84 
     900     20.07301    162142.32    72.129573    72.129573    35.986453          120    15070.623    18212.092    -33322.51    -436.1551   -4612.5293   -2478.3603    72.129573    62.466043    35.986453   -13.265058   -312255.78 
     910    19.848722    162143.27    72.129712    72.129713    35.986522          120    15325.477    18214.362   -32946.904   -349.86849   -4555.0992   -2515.5184    72.129712    62.466164    35.986522    197.64503   -312256.45 
     920    19.582896    162145.51    72.130046    72.130046    35.986689          120    15420.018    18213.289   -32585.586   -360.95222   -4565.7078   -2576.7441    72.130046    62.466453    35.986689    349.24056   -312256.75 
     930     19.39003    162149.92    72.130699    72.130699    35.987014          120    15422.415    18005.887   -32539.763   -461.27661    -4520.832   -2538.2336    72.130699    62.467018    35.987014    296.17973   -312257.27 
     940     19.26856    162155.82    72.131574    72.131575    35.987451          120    15164.959    17721.654   -32841.069    -508.8096   -4431.3379   -2372.5265    72.131574    62.467776    35.987451    15.181414   -312257.74 
     950    19.129019    162161.14    72.132363    72.132363    35.987845          120     14896.98      17553.4   -33328.948   -532.52676   -4287.7885   -2173.8343    72.132363    62.468459    35.987845   -292.85593   -312258.02 
     960     19.01658    162163.77    72.132753    72.132754     35.98804          120    14642.774    17495.985   -33670.493   -539.11349   -4265.5331   -2182.7791    72.132753    62.468797     35.98804   -510.57815   -312258.55 
     970    18.870738    162162.47    72.132561    72.132561    35.987943          120    14525.682    17612.019    -33877.11   -468.71209   -4405.3471   -2270.4945    72.132561     62.46863    35.987943   -579.80307   -312259.08 
     980    18.807671    162157.27    72.131789    72.131789    35.987558          120     14623.73    17900.633   -33663.298   -456.10531   -4430.8281   -2423.8601    72.131789    62.467962    35.987558   -379.64486   -312259.94 
     990    18.631282    162149.93    72.130701    72.130701    35.987016          120    14828.092    18106.062   -33140.141   -574.97761   -4441.5985   -2675.4035    72.130701     62.46702    35.987016   -68.662664      -312260 
    1000    18.539063    162142.85     72.12965    72.129651    35.986491          120    15003.872    18154.226   -32566.099   -716.57043   -4458.4591    -2834.738     72.12965     62.46611    35.986491    197.33293   -312260.81 
Loop time of 382.534 on 1 procs for 1000 steps with 14848 atoms

Performance: 0.226 ns/day, 106.259 hours/ns, 2.614 timesteps/s
100.0% CPU use with 1 MPI tasks x no OpenMP threads

MPI task timing breakdown:
Section |  min time  |  avg time  |  max time  |%varavg| %total
---------------------------------------------------------------
Pair    | 319.78     | 319.78     | 319.78     |   0.0 | 83.59
Bond    | 0.00057006 | 0.00057006 | 0.00057006 |   0.0 |  0.00
Kspace  | 14.577     | 14.577     | 14.577     |   0.0 |  3.81
Neigh   | 39.107     | 39.107     | 39.107     |   0.0 | 10.22
Comm    | 0.47937    | 0.47937    | 0.47937    |   0.0 |  0.13
Output  | 0.013659   | 0.013659   | 0.013659   |   0.0 |  0.00
Modify  | 8.4108     | 8.4108     | 8.4108     |   0.0 |  2.20
Other   |            | 0.1688     |            |       |  0.04

Nlocal:    14848 ave 14848 max 14848 min
Histogram: 1 0 0 0 0 0 0 0 0 0
Nghost:    46928 ave 46928 max 46928 min
Histogram: 1 0 0 0 0 0 0 0 0 0
Neighs:    1.01501e+07 ave 1.01501e+07 max 1.01501e+07 min
Histogram: 1 0 0 0 0 0 0 0 0 0

Total # of neighbors = 10150100
Ave neighs/atom = 683.6
Ave special neighs/atom = 0
Neighbor list builds = 115
Dangerous builds = 0
PPPM initialization ...
  using 12-bit tables for long-range coulomb (../kspace.cpp:321)
  G vector (1/distance) = 0.202713
  grid = 36 48 24
  stencil order = 5
  estimated absolute RMS force accuracy = 0.000990963
  estimated relative force accuracy = 6.88185e-05
  using double precision FFTs
  3d grid and FFT values/proc = 63017 41472
Setting up Verlet run ...
  Unit style    : metal
  Current step  : 0
  Time step     : 0.001
Per MPI rank memory allocation (min/avg/max) = 153.5 | 153.5 | 153.5 Mbytes
Step Temp Volume Cella Cellb Cellc CellGamma Pxx Pyy Pzz Pxy Pxz Pyz Lx Ly Lz Press PotEng 
       0    18.539063    162142.85     72.12965    72.129651    35.986491          120    15019.482    18169.889    -32555.53    -716.6599   -4457.9832   -2834.9895     72.12965     62.46611    35.986491    211.28046    -312260.6 
      10    18.891676    162137.91    72.128918    72.128918    35.986126          120    15180.486    18179.617   -32380.542   -755.04012   -4425.7406    -2945.505    72.128918    62.465476    35.986126    326.52058   -312261.67 
      20    19.024669    162135.78    72.128603    72.128603    35.985969          120    15344.833    18110.905   -32477.685    -719.7296   -4312.6724   -2937.5578    72.128603    62.465203    35.985969    326.01801   -312262.25 
      30    18.928509    162136.28    72.128676    72.128677    35.986005          120    15455.241    18133.953   -32538.646   -740.40423   -4196.6216    -2770.118    72.128676    62.465266    35.986005    350.18246   -312262.36 
      40    19.067595    162139.23    72.129114    72.129114    35.986224          120    15477.777    18127.051    -32624.28    -839.5511   -4083.8016   -2503.1934    72.129114    62.465646    35.986224     326.8494    -312262.9 
      50    19.388171    162144.21    72.129852    72.129852    35.986592          120    15426.769    18155.109   -32904.217   -864.03841   -3980.3212   -2312.3714    72.129852    62.466285    35.986592    225.88706   -312263.59 
      60    19.533178    162150.27    72.130751    72.130751     35.98704          120    15344.972    18103.309    -33226.21   -808.84559   -4064.4873   -2356.7175    72.130751    62.467063     35.98704    74.023578   -312264.11 
      70    19.182805     162156.3    72.131645    72.131646    35.987487          120    15268.068    17995.256   -33224.644   -750.35035   -4165.7006   -2437.0514    72.131645    62.467838    35.987487    12.893491   -312263.53 
      80    18.885296    162161.84    72.132467    72.132468    35.987897          120    15198.725    17909.792   -33068.913   -739.00687   -4177.0638    -2542.167    72.132467     62.46855    35.987897    13.201355   -312263.04 
      90    18.898153    162166.94    72.133223    72.133224    35.988274          120    15022.961    17927.955   -32801.716   -798.52354   -4116.2275   -2704.5414    72.133223    62.469204    35.988274    49.733407   -312263.64 
     100    18.969198    162171.86    72.133952    72.133953    35.988638          120    14862.461    18018.879   -32730.341   -823.59784   -4070.3621   -2753.9111    72.133952    62.469836    35.988638    50.333143   -312263.94 
     110    18.982713    162176.63    72.134659     72.13466    35.988991          120    14746.155    17976.801   -32714.735   -750.19087   -4102.6147   -2738.2253    72.134659    62.470448    35.988991    2.7402392   -312263.92 
     120    18.789475    162180.85    72.135284    72.135285    35.989302          120    14584.149    17828.734   -32842.919   -675.06551   -4142.3777    -2706.219    72.135284    62.470989    35.989302   -143.34523    -312263.9 
     130    18.869967    162183.62    72.135696    72.135696    35.989508          120     14512.87    17858.642   -33061.722   -556.91743   -4078.2633   -2768.7571    72.135696    62.471346    35.989508   -230.06985   -312264.33 
     140    18.973688    162184.52    72.135829     72.13583    35.989574          120    14563.313    17993.338   -33112.885   -409.21207   -3933.3727   -2723.5075    72.135829    62.471461    35.989574   -185.41174   -312264.27 
     150    18.893456    162183.97    72.135748    72.135749    35.989534          120    14604.181    18070.978   -33020.672   -422.04527   -3933.2131   -2539.7257    72.135748    62.471391    35.989534   -115.17105   -312263.92 
     160    18.769373    162182.66    72.135553    72.135554    35.989436          120    14678.583      18242.4   -32920.328   -455.78702   -3985.2453   -2399.0427    72.135553    62.471222    35.989436   0.21818069   -312263.29 
     170    18.679602     162181.5    72.135382    72.135382    35.989351          120    14902.394    18441.645   -32796.866   -492.08205   -4031.6054     -2477.15    72.135382    62.471074    35.989351    182.39113   -312263.15 
     180    18.805436    162181.76    72.135421    72.135421     35.98937          120    15069.264    18508.669   -32638.651   -499.34675   -4248.0304   -2587.2181    72.135421    62.471107     35.98937     313.0942   -312263.45 
     190    18.919239    162184.18    72.135779    72.135779    35.989549          120    15067.338    18437.918   -32626.696    -562.4705   -4395.1223   -2717.5557    72.135779    62.471417    35.989549    292.85342   -312263.63 
     200      19.0578    162188.47    72.136415    72.136415    35.989866          120    14949.051    18355.844   -32680.769   -581.02872   -4466.7796   -2912.0795    72.136415    62.471968    35.989866    208.04184   -312263.56 
     210    19.391797    162193.82    72.137207    72.137208    35.990262          120    14945.637    18228.158   -32957.567   -589.27888   -4415.8681   -2910.5455    72.137207    62.472655    35.990262    72.075988   -312263.68 
     220    19.454605    162199.26    72.138014    72.138015    35.990664          120    14940.647    18221.677   -33014.511   -558.54484   -4281.1648    -2940.417    72.138014    62.473354    35.990664    49.271002   -312263.54 
     230    19.511542    162204.49     72.13879     72.13879    35.991051          120    14757.703    18099.025   -32921.007   -401.89633   -4064.4193   -2929.6447     72.13879    62.474025    35.991051   -21.426508   -312263.47 
     240    19.656285    162209.09    72.139471    72.139472    35.991391          120    14728.266    18019.837   -32944.204   -350.83828   -3892.4806   -2851.3289    72.139471    62.474616    35.991391    -65.36678   -312263.36 
     250    19.755285    162212.77    72.140017    72.140017    35.991663          120    14674.403    18086.164   -33118.896   -316.15131   -3854.9451   -2699.3679    72.140017    62.475088    35.991663   -119.44315   -312263.01 
     260    19.931557     162215.2    72.140377    72.140377    35.991843          120    14630.322    18016.086   -33196.055   -290.19456   -3820.9798   -2710.6781    72.140377      62.4754    35.991843   -183.21599   -312263.06 
     270    20.196678    162216.13    72.140516    72.140516    35.991912          120    14741.532    17998.599   -33135.917   -237.18748   -3921.1051   -2841.8287    72.140516     62.47552    35.991912   -131.92886   -312263.17 
     280    20.150186    162216.04    72.140502    72.140503    35.991906          120    14965.358     18145.82   -33179.073   -223.56174   -4063.4859   -2928.0294    72.140502    62.475508    35.991906   -22.631471   -312262.62 
     290    20.083878    162215.82    72.140469    72.140469    35.991889          120    15165.119    18292.655   -33139.478   -216.18489   -4145.2428   -3108.5955    72.140469    62.475479    35.991889    106.09858   -312262.31 
     300    20.188642    162216.29    72.140538    72.140539    35.991924          120    15124.849    18262.289    -33116.13   -98.025232   -4179.0713    -3242.291    72.140538    62.475539    35.991924    90.336022   -312262.21 
     310    20.465652    162217.34    72.140695    72.140695    35.992002          120    15023.553    18242.071   -33214.246   -41.277626   -4190.6315   -3312.2578    72.140695    62.475675    35.992002    17.126095   -312262.22 
     320     20.61855    162218.43    72.140856    72.140856    35.992082          120    15041.637    18227.319   -33435.426   -71.757344   -4219.2516   -3283.4924    72.140856    62.475814    35.992082   -55.489961   -312262.14 
     330    20.663669    162218.97    72.140936    72.140937    35.992122          120    14969.962    18136.369   -33639.103   -93.488653   -4197.0533   -3250.7468    72.140936    62.475884    35.992122   -177.59069   -312261.78 
     340    20.796611    162218.17    72.140818    72.140819    35.992063          120    14817.459    18065.935   -33669.294    -203.3181   -4122.0127   -3194.2162    72.140818    62.475782    35.992063   -261.96649   -312261.76 
     350    20.941379    162215.61    72.140438    72.140439    35.991874          120    14707.179    18192.888   -33499.012   -306.63361   -4083.1685   -3154.1349    72.140438    62.475453    35.991874    -199.6482   -312261.95 
     360    21.269245    162211.88    72.139885    72.139886    35.991598          120    14837.178     18352.25   -33278.822   -272.75327    -4125.317    -3099.243    72.139885    62.474974    35.991598   -29.797938    -312262.4 
     370    21.368068    162208.28    72.139352    72.139352    35.991332          120    14914.668    18537.091   -33030.805   -261.96426   -4134.8148   -3049.3755    72.139352    62.474512    35.991332    140.31799   -312262.15 
     380    21.282268    162205.91       72.139       72.139    35.991156          120    14819.261    18564.676   -32945.465   -257.63909   -4049.1175   -3068.6791       72.139    62.474207    35.991156    146.15735   -312261.97 
     390     21.31726    162204.77    72.138831    72.138832    35.991072          120    14720.791    18510.406   -33001.639   -166.01734   -3924.9319   -3004.9803    72.138831    62.474061    35.991072    76.519193   -312262.08 
     400    21.443072    162204.29     72.13876    72.138761    35.991037          120    14717.197    18480.453   -33190.256   -111.50445   -3936.5866   -2910.0767     72.13876       62.474    35.991037    2.4648022   -312262.22 
     410    21.393689    162203.85    72.138695    72.138695    35.991004          120    14740.544    18416.667   -33437.625   -163.76619   -3972.1832   -2779.5788    72.138695    62.473943    35.991004   -93.471088   -312262.07 
     420    21.153866    162202.68    72.138522    72.138522    35.990918          120    14533.057    18286.149   -33543.718   -186.38204   -3997.4146   -2655.4812    72.138522    62.473793    35.990918    -241.5043   -312261.98 
     430    21.208924    162199.94    72.138115    72.138116    35.990715          120    14336.765    18415.339   -33377.124   -288.51872   -4070.5014     -2556.08    72.138115    62.473441    35.990715   -208.33992   -312261.98 
     440    21.419738    162196.05    72.137539     72.13754    35.990427          120    14440.037    18757.823   -33024.011   -457.67486    -4114.128    -2593.323    72.137539    62.472942    35.990427     57.94972   -312262.62 
     450    21.502267    162192.88    72.137069     72.13707    35.990193          120    14791.942     18822.01   -32835.151   -509.82295   -3988.8336   -2723.2398    72.137069    62.472535    35.990193     259.6002   -312262.83 
     460    21.420178    162191.76    72.136903    72.136903     35.99011          120     14951.41    18644.089   -32810.617   -523.55368   -3888.5091   -2780.6948    72.136903    62.472391     35.99011    261.62735   -312263.05 
     470    21.410371    162192.59    72.137026    72.137026    35.990171          120     14976.57    18492.634   -32968.134   -467.32463   -3902.9764   -2809.5187    72.137026    62.472497    35.990171    167.02329    -312263.4 
     480    21.490044    162194.57    72.137319     72.13732    35.990318          120    15005.548    18480.002   -33244.131   -377.04175   -3813.7167   -2831.6359    72.137319    62.472752    35.990318    80.472877   -312263.79 
     490    21.615426    162196.99    72.137678    72.137679    35.990497          120      14878.8    18502.492   -33259.849   -420.02517   -3821.4437   -2974.7133    72.137678    62.473063    35.990497    40.481082   -312264.57 
     500    21.452499     162199.5     72.13805    72.138051    35.990682          120    14724.188    18544.416   -33156.338   -505.58703   -3966.4083   -2980.6506     72.13805    62.473385    35.990682    37.421891   -312264.94 
     510    21.351336    162202.14    72.138441    72.138442    35.990877          120     14845.04     18605.63   -33075.903    -485.0342   -4086.7813   -2865.6738    72.138441    62.473724    35.990877    124.92231   -312265.62 
     520    21.252319    162205.47    72.138935    72.138935    35.991124          120    14989.763    18609.933   -33011.046   -408.88239   -4253.1121   -2705.5287    72.138935    62.474151    35.991124      196.217    -312266.1 
     530    21.084202    162209.94    72.139598    72.139599    35.991455          120    15059.806    18632.135   -32972.608   -304.73255   -4308.7433   -2692.7167    72.139598    62.474725    35.991455    239.77789   -312266.56 
     540     21.08526    162215.79    72.140465    72.140466    35.991887          120    15147.022    18551.977   -32950.904   -275.45321   -4190.5007   -2766.8108    72.140465    62.475476    35.991887    249.36482   -312267.14 
     550    21.054508    162222.89    72.141517    72.141517    35.992412          120    15073.635    18409.904   -33113.441   -312.22108   -4076.9945   -2857.3538    72.141517    62.476387    35.992412    123.36612   -312267.74 
     560    21.042674    162230.27    72.142611    72.142612    35.992958          120    14902.101    18342.174   -33337.318   -487.67643   -3991.9156   -3000.3372    72.142611    62.477335    35.992958    -31.01436   -312268.47 
     570    20.924462    162236.85    72.143586    72.143587    35.993444          120    14819.576    18338.769   -33502.381   -617.11003   -3942.6834   -3102.2037    72.143586    62.478179    35.993444   -114.67864   -312268.95 
     580    20.634939     162242.1    72.144366    72.144366    35.993833          120    14807.759    18321.306   -33379.322   -620.64497   -3905.3588   -3107.1948    72.144366    62.478854    35.993833   -83.418936   -312269.05 
     590    20.546285    162246.34    72.144994    72.144994    35.994147          120    14774.666    18491.738   -33203.767   -630.05666   -3813.6952   -3029.3743    72.144994    62.479398    35.994147    20.878944   -312270.03 
     600    20.361775    162250.43      72.1456    72.145601    35.994449          120    14915.903    18677.045   -33037.519   -579.19437   -3724.2185   -3021.5559      72.1456    62.479923    35.994449    185.14288    -312270.5 
     610    20.116685    162255.48    72.146348    72.146348    35.994822          120    15035.812    18646.597   -32992.416   -471.32497   -3738.1469    -3079.265    72.146348    62.480571    35.994822     229.9973   -312270.81 
     620    19.811288    162261.69    72.147269     72.14727    35.995282          120    14877.304    18557.496   -33115.783   -458.18815   -3690.6566   -3112.8541    72.147269    62.481368    35.995282    106.33868   -312270.67 
     630    19.721463    162268.17    72.148229    72.148229     35.99576          120    14751.674    18501.682   -33354.505   -436.78607   -3575.8191   -3212.0303    72.148229    62.482199     35.99576   -33.716141   -312271.13 
     640    19.708111    162273.84    72.149069     72.14907     35.99618          120    14603.245    18424.405   -33560.448   -324.81569   -3562.8409   -3293.0389    72.149069    62.482927     35.99618   -177.59938   -312271.91 
     650    19.640312    162277.83     72.14966    72.149661    35.996475          120    14487.118    18374.122   -33436.466   -308.99013   -3600.1672   -3189.9805     72.14966    62.483439    35.996475   -191.74218   -312272.41 
     660    19.590785    162280.13    72.150001    72.150001    35.996645          120    14575.341    18412.933   -33384.972   -404.64239    -3551.868   -3098.7111    72.150001    62.483734    35.996645   -132.23302      -312273 
     670    19.694906    162281.25    72.150168    72.150169    35.996728          120    14662.586    18457.469   -33364.484   -376.41208   -3563.9381   -3094.4078    72.150168    62.483879    35.996728   -81.476079   -312273.76 
     680    19.634648    162281.71    72.150235    72.150236    35.996762          120    14640.085    18509.102   -33196.913   -435.93075   -3638.7893   -3000.1536    72.150235    62.483937    35.996762   -15.908616   -312274.16 
     690    19.458103    162281.95    72.150271    72.150272     35.99678          120    14638.956    18412.427   -33100.098    -546.8732   -3598.9392   -2962.2621    72.150271    62.483968     35.99678   -16.238268   -312274.61 
     700    19.192576    162282.01     72.15028     72.15028    35.996784          120    14691.994    18337.476   -33234.208   -589.09493   -3624.6504   -3055.4609     72.15028    62.483976    35.996784   -68.246014    -312274.5 
     710     18.96015     162281.5    72.150205    72.150205    35.996746          120    14736.068    18376.742   -33599.103   -677.48394   -3782.1601   -3133.4732    72.150205    62.483911    35.996746   -162.09786   -312274.67 
     720    18.843209    162279.88    72.149965    72.149965    35.996627          120    14750.911    18376.098   -33670.842   -724.70347   -3856.2727   -3175.9158    72.149965    62.483703    35.996627   -181.27746   -312274.78 
     730    18.808883    162277.08     72.14955     72.14955     35.99642          120     14712.77    18450.742   -33527.116   -671.35736    -3812.556   -3290.6839     72.14955    62.483344     35.99642   -121.20126   -312275.09 
     740    18.911151    162273.65    72.149041    72.149041    35.996166          120    14775.403    18587.644   -33328.299   -549.64648   -3793.4794   -3326.2493    72.149041    62.482903    35.996166    11.582779   -312275.72 
     750    19.000353     162270.6    72.148589    72.148589     35.99594          120     14837.49    18747.144    -33055.28   -526.24329   -3764.7357   -3331.6391    72.148589    62.482511     35.99594    176.45119   -312276.45 
     760    19.074846    162269.06    72.148361    72.148361    35.995826          120    14837.955    18793.149   -32788.889   -567.05339   -3767.9818   -3358.5835    72.148361    62.482314    35.995826    280.73814   -312276.91 
     770    18.987838    162269.65    72.148448    72.148448     35.99587          120     14816.05    18713.858   -32684.467   -624.74895   -3779.1585   -3262.2892    72.148448    62.482389     35.99587    281.81378   -312277.06 
     780    18.747866    162272.26    72.148836    72.148836    35.996063          120     14880.48    18687.145   -32808.803   -696.90209    -3759.712   -3246.6011    72.148836    62.482725    35.996063    252.94076   -312276.72 
     790    18.654776    162276.52    72.149466    72.149466    35.996378          120    14793.393    18676.501   -32932.169   -673.03482   -3749.9341   -3282.7077    72.149466    62.483271    35.996378    179.24177   -312276.64 
     800    18.537917    162281.72    72.150238    72.150238    35.996763          120    14635.777    18582.593   -33021.277   -562.26612   -3729.4817   -3266.1517    72.150238    62.483939    35.996763    65.697857   -312276.51 
     810    18.442116    162287.05    72.151027    72.151028    35.997157          120    14606.051     18496.43   -33121.379   -488.85215   -3802.2064   -3201.5989    72.151027    62.484623    35.997157   -6.2993987   -312276.19 
     820      18.4799     162291.9    72.151746    72.151746    35.997515          120    14645.587    18406.794   -33271.462   -435.92473   -3896.3157   -3122.0328    72.151746    62.485245    35.997515   -73.026889   -312276.27 
     830    18.538359    162295.88    72.152336    72.152336     35.99781          120    14659.104    18338.926   -33208.939   -430.74322   -3884.9565   -3158.4821    72.152336    62.485756     35.99781    -70.30269   -312276.28 
     840    18.642221    162299.04    72.152804    72.152805    35.998043          120    14651.303    18207.914   -33044.305   -419.24788   -3696.9496   -3222.4511    72.152804    62.486162    35.998043   -61.696276   -312276.27 
     850    18.541285    162301.48    72.153165    72.153166    35.998223          120    14691.511    18024.117   -32970.759   -453.73647   -3428.1732   -3245.1673    72.153165    62.486475    35.998223   -85.043469   -312275.79 
     860    18.521186    162303.06      72.1534    72.153401    35.998341          120    14797.135    17863.102   -33125.671   -506.78843   -3220.5347   -3261.3333      72.1534    62.486678    35.998341   -155.14456   -312275.78 
     870    18.607157    162303.35    72.153443    72.153443    35.998362          120    14841.817     17793.71   -33381.775   -583.12063   -3194.2166   -3256.3393    72.153443    62.486715    35.998362   -248.74925   -312275.78 
     880    18.873511    162301.78    72.153209     72.15321    35.998245          120    14722.554    17817.748   -33472.249   -586.07209   -3321.3681   -3293.2073    72.153209    62.486513    35.998245   -310.64859   -312276.09 
     890    19.012433    162298.02    72.152652    72.152653    35.997967          120    14688.126    17856.396   -33568.362   -556.23806   -3351.1171    -3307.659    72.152652     62.48603    35.997967   -341.27997   -312276.05 
     900    18.948999     162292.1    72.151775    72.151775     35.99753          120    14808.915    18017.765   -33576.307   -568.91851   -3364.9766   -3159.4934    72.151775     62.48527     35.99753   -249.87582   -312275.16 
     910    19.063315    162284.81    72.150694    72.150695    35.996991          120    14921.457     18224.59   -33376.154   -558.27571   -3430.9346   -3144.9158    72.150694    62.484335    35.996991   -76.702415   -312274.87 
     920    19.304173    162277.52    72.149615    72.149616    35.996452          120    15037.315    18503.549   -33109.274   -545.33132   -3429.0407   -3331.0855    72.149615      62.4834    35.996452    143.86334   -312275.08 
     930    19.719291    162271.83    72.148771    72.148772    35.996031          120    15106.389     18882.27   -32999.227   -502.08575   -3369.6191   -3439.7399    72.148771    62.482669    35.996031    329.81071   -312275.37 
     940    19.970192    162268.95    72.148345    72.148345    35.995818          120    15105.998    19221.391   -33036.034   -516.18866   -3222.1469   -3573.2728    72.148345      62.4823    35.995818    430.45178   -312275.59 
     950    20.127044     162269.4    72.148411    72.148412    35.995852          120    15102.263    19218.606   -33112.362    -457.4209    -3164.772   -3629.9028    72.148411    62.482358    35.995852    402.83577   -312275.53 
     960    20.283613     162272.7      72.1489      72.1489    35.996095          120    14957.506     19071.91   -33324.202   -343.94661    -3227.314    -3533.573      72.1489    62.482781    35.996095    235.07146   -312275.25 
     970    20.409847    162277.45    72.149604    72.149605    35.996447          120    14804.847    18857.809   -33592.565   -371.62392   -3288.0576   -3336.3738    72.149604    62.483391    35.996447    23.363933   -312275.24 
     980    20.492234    162282.02    72.150281    72.150281    35.996784          120    14722.071     18643.15   -33891.471   -423.90677   -3298.6508   -3208.3976    72.150281    62.483977    35.996784   -175.41656   -312274.86 
     990    20.271302    162285.02    72.150726    72.150727    35.997007          120     14649.37    18549.092   -33918.851    -353.2413   -3380.5987   -3230.8985    72.150726    62.484363    35.997007   -240.12924   -312274.04 
    1000    20.406404    162286.14    72.150892    72.150893    35.997089          120    14550.853    18637.538   -33577.605   -333.78133   -3540.9293   -3216.8769    72.150892    62.484506    35.997089   -129.73815   -312273.99 
    1010    20.625159    162286.25    72.150908    72.150908    35.997097          120    14629.242     18751.69   -33291.098    -273.6514   -3636.1137   -3268.6295    72.150908     62.48452    35.997097    29.944575    -312274.1 
    1020    20.906356    162286.58    72.150957    72.150958    35.997122          120    14777.037    18876.094   -33082.369   -170.67126   -3739.2732   -3160.0229    72.150957    62.484562    35.997122    190.25392   -312274.12 
    1030    21.093105    162288.23    72.151202    72.151202    35.997244          120    14857.528    18942.141   -33090.707   -226.17557   -3738.3912   -3000.2732    72.151202    62.484774    35.997244    236.32083   -312273.93 
    1040    21.015636    162291.41    72.151674    72.151674    35.997479          120    14957.169    18730.622   -33295.146   -317.01788     -3565.15   -2855.7718    72.151674    62.485183    35.997479    130.88183   -312273.53 
    1050    20.874646    162295.34    72.152256    72.152256     35.99777          120    14933.459    18700.441   -33505.899   -367.98764   -3358.2553   -2863.3517    72.152256    62.485687     35.99777    42.667113   -312272.86 
    1060    20.922219    162299.36    72.152851    72.152852    35.998067          120     15029.61    18732.527   -33604.831   -316.12308   -3224.5531   -2942.3963    72.152851    62.486203    35.998067    52.435407   -312272.98 
    1070    21.173659    162303.47    72.153461    72.153461    35.998371          120    14995.474     18651.49   -33447.096   -316.92283     -3136.27   -3054.5731    72.153461    62.486731    35.998371    66.622449   -312273.34 
    1080    21.216616    162307.79      72.1541      72.1541     35.99869          120    14878.143    18604.591   -33224.543   -436.80478   -3216.1891    -3052.424      72.1541    62.487284     35.99869    86.063641      -312273 
    1090    21.195486    162312.42    72.154786    72.154787    35.999032          120    14926.772    18554.327   -33195.074   -494.11078    -3410.357   -2930.3446    72.154786    62.487879    35.999032    95.341653    -312272.6 
    1100    21.177083    162317.34    72.155515    72.155516    35.999396          120    14914.408    18392.103    -33347.63   -545.48756    -3594.974   -2867.6491    72.155515     62.48851    35.999396    -13.70645   -312272.58 
    1110    21.085757    162321.75    72.156169     72.15617    35.999722          120    14687.108    18159.014   -33383.839   -510.01624    -3716.797   -2854.8707    72.156169    62.489076    35.999722    -179.2387   -312272.46 
    1120    21.080897    162324.51    72.156578    72.156579    35.999926          120    14346.016     18115.04   -33437.878   -395.77764   -3800.7897   -3008.1288    72.156578    62.489431    35.999926   -325.60707   -312272.45 
    1130    21.101643    162324.69    72.156605    72.156606     35.99994          120    14078.742    18215.775   -33474.372   -374.87247   -3825.6691    -3176.253    72.156605    62.489454     35.99994   -393.28477   -312272.47 
    1140    21.230194    162322.04    72.156211    72.156212    35.999743          120    14079.467     18465.73   -33426.266   -435.64128   -3690.0862    -3242.563    72.156211    62.489113    35.999743   -293.68981   -312272.88 
    1150    21.281442    162317.43    72.155529     72.15553    35.999403          120    14267.403    18622.279   -33218.739   -481.26598   -3475.5411   -3096.2416    72.155529    62.488522    35.999403    -109.6857   -312273.41 
    1160     21.23418    162312.33    72.154773    72.154773    35.999025          120    14426.044    18687.772   -32955.395   -542.18635   -3266.2124   -3137.8173    72.154773    62.487867    35.999025    52.807036   -312273.48 
    1170    21.403518    162307.97    72.154127    72.154127    35.998703          120     14547.62    18824.438   -32801.369   -599.35751   -3125.3084   -3320.3994    72.154127    62.487307    35.998703    190.22966   -312273.89 
    1180    21.199398    162305.22    72.153719    72.153719      35.9985          120    14580.156    18775.119   -32827.322   -609.66375   -3159.8596   -3411.6916    72.153719    62.486954      35.9985    175.98414   -312273.79 
    1190    20.979055    162303.94    72.153529     72.15353    35.998405          120    14505.733    18678.438    -32836.16   -588.42081   -3275.3842   -3495.5087    72.153529     62.48679    35.998405    116.00381   -312273.71 
    1200    21.016195     162303.6     72.15348     72.15348     35.99838          120    14504.904    18647.381   -32946.923   -645.33777   -3396.5925   -3505.0218     72.15348    62.486747     35.99838    68.453754    -312274.3 
    1210    20.746546    162303.84    72.153515    72.153515    35.998398          120    14619.502    18718.081   -33064.349   -638.11935   -3503.1963   -3591.0492    72.153515    62.486777    35.998398    91.077929    -312274.3 
    1220    20.631518    162304.77    72.153652    72.153653    35.998466          120    14821.273    18754.791   -33100.346   -641.38648   -3566.9656   -3667.0178    72.153652    62.486897    35.998466    158.57253   -312274.43 
    1230    20.573369    162306.72    72.153942    72.153942    35.998611          120    14936.338    18644.923   -33257.935   -692.96641   -3498.1537   -3605.8024    72.153942    62.487147    35.998611    107.77515   -312274.71 
    1240     20.69204    162309.28     72.15432    72.154321      35.9988          120    14753.335    18535.017   -33391.637   -732.66184   -3420.0538   -3514.1687     72.15432    62.487475      35.9988   -34.428162   -312275.48 
    1250    20.621379    162311.35    72.154627    72.154628    35.998953          120    14514.914    18486.773   -33696.574   -817.90627   -3384.6707   -3394.7316    72.154627    62.487741    35.998953   -231.62914   -312276.08 
    1260    20.214631     162311.6    72.154665    72.154666    35.998972          120    14335.638    18522.347   -33849.677   -853.84485   -3450.3242   -3293.5965    72.154665    62.487774    35.998972   -330.56382    -312275.9 
    1270    19.795369     162309.5    72.154354    72.154355    35.998817          120    14401.671    18544.776   -33606.393   -813.66471    -3569.758   -3268.6896    72.154354    62.487505    35.998817   -219.98196   -312275.53 
    1280    19.746019    162305.99    72.153834    72.153834    35.998557          120    14762.182    18660.592   -33356.128   -722.11638     -3658.37   -3302.7794    72.153834    62.487054    35.998557    22.215372   -312276.21 
    1290    19.831434    162302.87    72.153371    72.153371    35.998326          120    14906.278    18803.308   -33062.251   -571.85809   -3624.2643   -3312.0351    72.153371    62.486653    35.998326    215.77856    -312276.8 
    1300    19.784297    162301.44    72.153159    72.153159     35.99822          120    14676.385    18858.054   -32839.776   -485.18494   -3526.2932   -3316.8147    72.153159    62.486469     35.99822    231.55419   -312277.38 
    1310     19.86267    162301.84    72.153219     72.15322     35.99825          120    14511.512    18909.612    -32657.62   -464.53236   -3457.9948   -3351.1679    72.153219    62.486521     35.99825    254.50115    -312278.1 
    1320    20.009019    162304.11    72.153555    72.153555    35.998418          120    14562.534    18890.424   -32637.489   -443.81672   -3325.8812   -3361.1414    72.153555    62.486812    35.998418    271.82308   -312278.94 
    1330    20.050232     162308.2    72.154162    72.154162     35.99872          120    14723.584     18800.12   -32793.496   -486.24128   -3189.2747   -3298.4769    72.154162    62.487338     35.99872    243.40308   -312279.47 
    1340    19.741677    162313.83    72.154996    72.154996    35.999137          120    14902.378     18578.34   -32785.805   -424.47559   -3095.5308   -3314.5268    72.154996     62.48806    35.999137    231.63764   -312279.26 
    1350    19.477839    162320.86    72.156037    72.156037    35.999656          120    15052.893    18479.981   -32652.857   -327.20771   -3022.8793   -3390.4489    72.156037    62.488962    35.999656    293.33926   -312279.16 
    1360    19.401811    162329.55    72.157324    72.157325    36.000299          120    15160.969    18436.939     -32745.2   -249.94338   -3108.5677   -3367.9179    72.157324    62.490077    36.000299    284.23589   -312279.29 
    1370    19.641401    162339.69    72.158827    72.158827    36.001048          120    15128.299    18305.644   -32966.846   -170.55587   -3190.4346   -3257.6202    72.158827    62.491378    36.001048    155.69881   -312280.12 
    1380    19.502203    162350.28    72.160396    72.160397    36.001831          120    14899.992    18226.992   -33126.388   -140.10947   -3156.5844   -3285.3715    72.160396    62.492737    36.001831   0.19833532   -312280.37 
    1390    19.323348    162360.17    72.161862    72.161862    36.002562          120    14717.748    18214.348   -33319.621   -167.59782   -3122.4907   -3208.7439    72.161862    62.494006    36.002562   -129.17498   -312280.29 
    1400    19.318328     162368.5    72.163096    72.163096    36.003178          120    14725.511    18249.775   -33460.242   -232.41132    -3164.966   -3074.1079    72.163096    62.495075    36.003178   -161.65181    -312280.3 
    1410     19.31517    162375.09    72.164072    72.164072    36.003665          120    14844.803    18292.735   -33550.908   -341.21053    -3130.346   -3042.8434    72.164072     62.49592    36.003665   -137.79007   -312280.55 
    1420    19.198976    162380.19    72.164827    72.164827    36.004042          120     14839.35    18329.721   -33609.318   -437.75583   -3101.3445   -3030.9756    72.164827    62.496574    36.004042   -146.74893   -312280.41 
    1430    19.044019    162383.76    72.165356    72.165356    36.004305          120    14678.637    18287.108   -33716.502   -567.29888   -3100.4531   -3026.0803    72.165356    62.497032    36.004305   -250.25226   -312280.47 
    1440    19.046674    162385.27     72.16558     72.16558    36.004417          120    14660.039    18411.178   -33912.771   -713.46827   -3059.2567   -2965.2662     72.16558    62.497226    36.004417   -280.51788   -312280.71 
    1450    18.921674    162384.57    72.165477    72.165477    36.004366          120    14558.345    18500.626   -33969.969    -841.8914    -3076.886    -2900.127    72.165477    62.497137    36.004366   -303.66629    -312280.5 
    1460    19.037984    162381.67    72.165047    72.165047    36.004151          120     14390.41    18618.431   -33881.429   -909.60926   -3164.7085   -2796.2057    72.165047    62.496764    36.004151    -290.8627   -312280.93 
    1470    19.017471     162376.8    72.164325    72.164325    36.003791          120    14379.066    18704.617   -33825.673   -902.01232   -3266.4121   -2723.1088    72.164325    62.496139    36.003791   -247.33013   -312281.01 
    1480    19.051174    162370.41    72.163378    72.163379    36.003319          120    14440.724    18708.399   -33703.647   -862.43528     -3405.72   -2721.7662    72.163378     62.49532    36.003319    -184.8412   -312280.94 
    1490    19.144778    162363.02    72.162283    72.162284    36.002772          120    14508.493    18685.169   -33708.539    -758.0784   -3478.1696   -2711.4824    72.162283    62.494371    36.002772   -171.62568   -312281.07 
    1500    19.109687    162354.79    72.161064    72.161065    36.002164          120    14454.878    18697.251   -33714.438   -709.38502     -3407.11   -2714.4177    72.161064    62.493316    36.002164   -187.43662   -312281.02 
    1510    18.891979    162345.75    72.159725    72.159725    36.001496          120    14513.038    18786.402   -33650.756   -678.66217   -3233.8745   -2732.6024    72.159725    62.492155    36.001496   -117.10547   -312280.75 
    1520    18.744906     162336.5    72.158354    72.158354    36.000812          120     14718.95    18910.191   -33423.106   -723.24126   -3102.8879   -2787.4383    72.158354    62.490968    36.000812    68.678189   -312280.46 
    1530    18.842628    162328.33    72.157143    72.157144    36.000208          120    14881.828    18977.279   -33195.139   -694.38445   -3173.0163    -2946.259    72.157143     62.48992    36.000208    221.32285   -312280.72 
    1540    18.901408    162322.29     72.15625     72.15625    35.999762          120    14950.153    19057.661   -33085.999   -580.74928   -3132.0615   -2917.8127     72.15625    62.489146    35.999762    307.27162   -312280.72 
    1550    18.910935    162318.94    72.155753    72.155753    35.999514          120    14988.474    19164.942   -33025.334   -611.92205   -3108.8663   -2906.2418    72.155753    62.488716    35.999514    376.02732   -312280.51 
    1560    18.954351    162318.55    72.155694    72.155695    35.999485          120    14952.354    19177.712   -33044.963   -650.26187   -3133.9682   -2801.6495    72.155694    62.488665    35.999485    361.70093   -312280.44 
    1570    19.278481    162320.85    72.156036    72.156037    35.999656          120    14871.708    19100.663    -33004.23   -693.73493   -3165.9056   -2711.0188    72.156036    62.488961    35.999656     322.7135    -312280.8 
    1580    19.517838    162325.43    72.156713    72.156714    35.999994          120    14897.029    18935.871   -32953.088   -807.68369   -3330.0514   -2764.9841    72.156713    62.489548    35.999994     293.2708    -312280.9 
    1590    19.602127    162331.87    72.157669    72.157669     36.00047          120    14979.876    18767.846   -33011.954   -817.59361   -3491.8637   -2694.3886    72.157669    62.490375     36.00047    245.25616   -312280.63 
    1600      19.6539    162339.76    72.158837    72.158837    36.001053          120    15141.464    18616.327    -33074.46   -717.58207     -3449.79   -2603.9715    72.158837    62.491387    36.001053    227.77702   -312280.29 
    1610    19.629642     162348.8    72.160177    72.160177    36.001722          120    15012.368    18556.955   -33096.617   -697.70787   -3362.8986   -2667.8737    72.160177    62.492547    36.001722    157.56845   -312279.51 
    1620    19.665166    162358.34    72.161591    72.161592    36.002427          120    14719.321    18520.946    -33326.45   -758.67868   -3327.3341    -2832.998    72.161591    62.493772    36.002427   -28.727896   -312279.32 
    1630    19.773216    162367.08    72.162885    72.162886    36.003073          120    14500.889    18490.508   -33494.479   -816.36863   -3402.3411    -2886.841    72.162885    62.494893    36.003073    -167.6942   -312279.06 
    1640    19.787843    162374.08    72.163923    72.163923    36.003591          120    14442.336    18390.586   -33412.982   -847.83979   -3586.3491   -2994.2072    72.163923    62.495791    36.003591   -193.35308   -312278.75 
    1650     19.88923    162379.12    72.164669     72.16467    36.003963          120    14393.401    18139.017   -33424.414   -804.58068   -3638.8159   -3078.7124    72.164669    62.496438    36.003963   -297.33209    -312278.6 
    1660    20.175993    162381.66    72.165046    72.165046    36.004151          120     14412.77     18060.17   -33472.153   -599.41384   -3744.9233   -2920.1425    72.165046    62.496763    36.004151   -333.07106   -312278.58 
    1670     20.34145    162381.63     72.16504     72.16504    36.004148          120    14551.453    18224.207   -33546.616   -382.42426   -3699.9887   -2798.3756     72.16504    62.496758    36.004148   -256.98541   -312278.57 
    1680    20.417101    162379.67     72.16475     72.16475    36.004003          120    14537.922    18429.865   -33530.592   -241.44807   -3564.6046   -2693.1392     72.16475    62.496507    36.004003   -187.60164   -312278.46 
    1690    20.641781    162376.39    72.164264    72.164265    36.003761          120    14455.223    18407.334   -33370.716   -53.293796   -3468.9945   -2650.9119    72.164264    62.496087    36.003761   -169.38636   -312278.68 
    1700    20.879511    162372.06    72.163623    72.163624    36.003441          120    14488.532    18348.026   -33288.228   -27.541915   -3390.3238   -2799.0455    72.163623    62.495532    36.003441   -150.55695   -312278.85 
    1710    20.872695    162366.86    72.162852    72.162852    36.003056          120    14553.247    18325.535   -33386.737   -161.28673   -3435.5806   -2947.6608    72.162852    62.494864    36.003056   -169.31844   -312278.46 
    1720    20.782423     162360.7     72.16194    72.161941    36.002601          120    14598.368    18264.453   -33424.231   -267.40469   -3405.4454   -3076.2385     72.16194    62.494074    36.002601   -187.13663   -312278.15 
    1730    20.903656     162353.6    72.160888    72.160888    36.002076          120    14689.747    18282.735   -33356.177   -323.70464   -3423.1507   -3127.8069    72.160888    62.493163    36.002076   -127.89823   -312277.98 
    1740    21.106997    162345.96    72.159757    72.159757    36.001512          120     14716.98    18372.309   -33310.955   -280.61116   -3497.2918    -3168.614    72.159757    62.492183    36.001512   -73.888632   -312278.13 
    1750      21.3172    162338.29    72.158619     72.15862    36.000945          120     14735.98    18546.783   -33210.326    -226.4068   -3511.9918   -3243.0536    72.158619    62.491198    36.000945    24.145615   -312278.45 
    1760     21.05229    162331.29    72.157582    72.157582    36.000427          120    14729.139    18765.284   -33074.732    -173.5769   -3517.9822    -3262.638    72.157582      62.4903    36.000427    139.89729   -312277.94 
    1770    20.955562    162325.73    72.156759    72.156759    36.000016          120    14740.872    18816.784     -32910.9    -134.5338   -3349.9327   -3258.0944    72.156759    62.489587    36.000016     215.5856   -312277.77 
    1780    21.085408    162322.08    72.156217    72.156218    35.999746          120     14855.27    18713.084   -32866.904   -146.52039   -3270.6154   -3204.3875    72.156217    62.489118    35.999746    233.81658   -312278.17 
    1790    21.024573    162320.42    72.155972    72.155973    35.999624          120    15038.442    18687.987   -32891.204   -303.52612    -3323.961   -3143.7409    72.155972    62.488905    35.999624    278.40856   -312277.97 
    1800    20.869308     162320.9    72.156043    72.156044    35.999659          120    15152.379     18709.37   -33009.386   -491.99254   -3495.3058    -3090.012    72.156043    62.488967    35.999659    284.12116   -312277.81 
    1810    20.843517    162323.47    72.156424    72.156424    35.999849          120    15180.553    18765.199   -33108.062   -567.06003   -3635.8355   -3017.0526    72.156424    62.489296    35.999849    279.23009   -312277.69 
    1820    20.913487    162327.95    72.157088    72.157089    36.000181          120    15244.793    18757.908   -33241.603   -463.52435   -3553.2083   -3004.0327    72.157088    62.489872    36.000181     253.6995      -312278 
    1830    20.990512    162333.99    72.157982    72.157983    36.000627          120    15197.856    18692.822   -33464.608    -269.2477   -3496.7014   -2956.2136    72.157982    62.490646    36.000627    142.02336   -312278.13 
    1840    20.924066    162340.68    72.158974    72.158975    36.001122          120    14985.625    18582.744   -33591.706   -129.20995   -3498.6403   -2862.1156    72.158974    62.491506    36.001122    -7.779298   -312278.31 
    1850      20.9274    162346.92    72.159898    72.159898    36.001582          120     14903.24    18488.187   -33791.206   -109.15037   -3481.8998   -2824.9411    72.159898    62.492305    36.001582   -133.25968    -312278.4 
    1860    21.056616    162351.87    72.160631    72.160632    36.001948          120    14890.856    18402.496   -33675.793    -199.2492   -3542.2137   -2944.7746    72.160631     62.49294    36.001948   -127.48044   -312279.17 
    1870    20.976333    162355.56    72.161179    72.161179    36.002221          120    14830.379    18335.133   -33526.959   -335.80677    -3700.414   -3047.9199    72.161179    62.493415    36.002221   -120.48233   -312279.15 
    1880    20.955736    162358.07     72.16155    72.161551    36.002407          120    14668.492    18231.463   -33475.075   -421.00288   -3755.1586   -3072.4829     72.16155    62.493736    36.002407   -191.70657   -312279.47 
    1890    20.936967    162358.98    72.161685    72.161686    36.002474          120    14443.076    18192.257   -33453.486   -379.81518   -3775.1235   -3078.2005    72.161685    62.493853    36.002474   -272.71773   -312279.91 
    1900    20.758134    162357.77    72.161506    72.161507    36.002385          120     14252.28     18232.33   -33624.827   -264.25797   -3746.7225   -2943.8994    72.161506    62.493698    36.002385   -380.07233   -312280.09 
    1910    20.559632    162353.86    72.160926    72.160926    36.002095          120    14210.847    18252.025    -33627.79   -97.033003   -3618.7093   -2857.2056    72.160926    62.493196    36.002095    -388.3062   -312280.32 
    1920    20.479886    162347.37    72.159965    72.159965    36.001616          120    14350.182     18453.98   -33550.931   -60.242833   -3524.1706   -2739.4387    72.159965    62.492363    36.001616   -248.92297   -312280.46 
    1930     20.30549    162339.42    72.158787    72.158787    36.001028          120     14527.42    18651.568   -33426.138   -169.81832   -3579.1572   -2663.4913    72.158787    62.491343    36.001028   -82.383353   -312280.55 
    1940    20.205724    162331.33    72.157588    72.157589     36.00043          120    14677.121    18806.655    -33216.55   -305.12844   -3558.6935    -2740.093    72.157588    62.490305     36.00043    89.075332   -312280.88 
    1950     20.26961    162324.38    72.156559     72.15656    35.999917          120    14860.488    18961.141   -33054.121   -501.33667   -3442.8391   -2859.2582    72.156559    62.489414    35.999917    255.83606   -312281.49 
    1960    20.524549    162319.75    72.155873    72.155874    35.999574          120    15049.334    19102.916   -32934.573   -590.26285   -3429.5789   -2933.6163    72.155873     62.48882    35.999574    405.89203   -312282.55 
    1970    20.327896    162318.44    72.155678    72.155678    35.999477          120    15247.137    19220.181   -32831.703   -554.35925   -3341.4939    -3041.601    72.155678    62.488651    35.999477    545.20486   -312282.67 
    1980    19.933786     162321.2    72.156088    72.156088    35.999681          120    15408.146    19204.751   -32868.791   -506.81699   -3212.6837   -3060.6137    72.156088    62.489006    35.999681    581.36856   -312282.33 
    1990    19.663997    162328.05    72.157103    72.157103    36.000188          120    15390.077     19087.57    -33046.97   -473.74002   -3137.4044   -2921.2469    72.157103    62.489885    36.000188    476.89226   -312282.29 
    2000    19.542224    162338.03    72.158581    72.158581    36.000925          120    15337.722    19041.966   -33318.668   -468.85532   -3176.1444   -2742.3793    72.158581    62.491165    36.000925    353.67332   -312282.42 
    2010    19.472937    162350.14    72.160376    72.160376    36.001821          120    15363.854    19121.235   -33459.717   -488.13257   -3225.4147   -2605.7831    72.160376    62.492719    36.001821    341.79054   -312282.52 
    2020    19.520835    162363.94     72.16242     72.16242    36.002841          120    15097.918    18993.762   -33626.742    -508.9249   -3182.4544   -2807.6673     72.16242    62.494489    36.002841    154.97925   -312283.09 
    2030    19.489038    162378.08    72.164514    72.164515    36.003886          120     14810.18     18775.45   -33648.409   -440.05662   -3236.4296   -3094.0687    72.164514    62.496303    36.003886   -20.926219   -312283.31 
    2040    19.509848    162391.29    72.166471    72.166472    36.004862          120    14673.668    18595.636   -33571.481   -414.26967   -3280.2136   -3287.0361    72.166471    62.497998    36.004862   -100.72578   -312283.38 
    2050     19.59537    162402.92    72.168195    72.168195    36.005722          120     14541.83    18499.996   -33685.785   -347.71038   -3364.8651   -3343.5372    72.168195    62.499491    36.005722   -214.65276   -312283.89 
    2060     19.42953    162412.22    72.169572    72.169573    36.006409          120    14313.011    18442.507   -33860.999   -297.22792   -3445.2796   -3393.1589    72.169572    62.500684    36.006409   -368.49361   -312284.06 
    2070    19.393749     162418.2    72.170458    72.170459    36.006851          120    14076.287    18383.701   -34002.046   -305.00065   -3375.2971   -3339.8408    72.170458    62.501451    36.006851   -514.01959   -312284.33 
    2080    19.314581    162420.05    72.170731    72.170732    36.006987          120    13987.769    18413.733    -34101.83     -313.411   -3321.9531    -3142.181    72.170731    62.501687    36.006987   -566.77602   -312284.74 
    2090    19.195495    162417.55    72.170361    72.170361    36.006803          120    14068.868    18380.598   -34167.786   -386.77615   -3287.1529   -2957.6144    72.170361    62.501367    36.006803   -572.77316   -312284.89 
    2100    19.072819    162410.93    72.169381    72.169381    36.006314          120    14288.628    18307.469   -34162.491   -364.09415   -3363.5018   -2877.9257    72.169381    62.500518    36.006314   -522.13129   -312284.81 
    2110    18.941754     162400.8     72.16788    72.167881    36.005565          120     14454.65    18353.234   -34095.988   -334.78584   -3476.9369    -2911.153     72.16788    62.499218    36.005565   -429.36795   -312284.78 
    2120     18.98183    162388.07    72.165995    72.165995    36.004624          120    14518.888    18532.179   -33907.628   -330.69469   -3427.2023   -3013.8218    72.165995    62.497585    36.004624   -285.52069    -312284.9 
    2130    19.040077    162373.93    72.163899      72.1639    36.003579          120    14531.828     18781.15   -33743.044   -283.81178   -3400.2899   -3035.3907    72.163899    62.495771    36.003579   -143.35537   -312285.12 
    2140    19.032863    162359.61    72.161778    72.161779    36.002521          120    14677.201    19094.715   -33530.756   -271.37882   -3451.3544   -3039.8422    72.161778    62.493934    36.002521    80.386805    -312285.4 
    2150    19.008675    162346.64    72.159857    72.159857    36.001562          120    14860.857    19238.037   -33538.581   -271.77147   -3462.9912    -3082.614    72.159857     62.49227    36.001562    186.77138   -312285.62 
    2160    19.055661    162335.84    72.158256    72.158257    36.000763          120    15126.323     19326.63   -33539.455   -273.50576   -3427.8949   -3155.0004    72.158256    62.490884    36.000763    304.49934   -312285.86 
    2170    19.183774    162327.92    72.157084    72.157084    36.000178          120    15234.049    19317.652   -33400.916   -249.83567   -3395.1819   -3148.9575    72.157084    62.489868    36.000178    383.59513    -312285.9 
    2180    19.238763    162323.27    72.156395    72.156395    35.999835          120    15230.645    19254.752   -33344.509   -161.83576   -3441.3411   -3025.0879    72.156395    62.489272    35.999835    380.29599   -312285.95 
    2190     19.14967    162321.76    72.156171    72.156171    35.999723          120     15319.86    19213.811   -33334.785   -60.929789   -3489.8995   -3005.3692    72.156171    62.489078    35.999723    399.62875   -312285.37 
    2200    19.009457    162323.26    72.156392    72.156393    35.999833          120    15246.179    19186.204   -33357.421   -118.27001   -3566.4944   -2984.5597    72.156392    62.489269    35.999833    358.32058   -312285.01 
    2210    18.987138    162327.38    72.157004    72.157004    36.000138          120    15185.602    19038.896   -33146.208   -91.028507   -3531.3927   -2978.1658    72.157004    62.489799    36.000138    359.42984   -312284.76 
    2220    19.135553    162333.87    72.157965    72.157965    36.000618          120    15072.259     18838.89   -33124.644   -119.78916   -3442.1527   -3044.6667    72.157965    62.490631    36.000618    262.16833   -312284.83 
    2230    19.335942    162341.95    72.159161    72.159162    36.001215          120    14949.305    18762.197   -33187.193   -260.75841   -3409.1617   -3105.6073    72.159161    62.491668    36.001215     174.7697   -312285.09 
    2240    19.343011    162350.82    72.160476    72.160476    36.001871          120    14755.481    18704.841   -33321.636   -304.75676   -3358.6479   -3263.7758    72.160476    62.492806    36.001871    46.228687   -312284.69 
    2250    19.261935    162359.53    72.161766    72.161767    36.002514          120    14649.013    18672.125   -33490.727   -349.51127   -3398.3627   -3167.2817    72.161766    62.493923    36.002514   -56.529439    -312284.3 
    2260    19.317293    162367.37    72.162928    72.162929    36.003094          120    14547.124    18777.057   -33513.765   -417.61365   -3464.5473   -2941.5514    72.162928     62.49493    36.003094   -63.194568   -312284.35 
[...]
   99200    20.023837    162492.27    72.181427    72.181427    36.012323          120    14697.282    19116.634   -33725.809    224.78959   -2971.1073   -3102.6029    72.181427     62.51095    36.012323    29.368876   -312300.69 
   99210    19.820621    162493.32    72.181583    72.181583    36.012401          120     14831.77    19115.612    -33392.96    245.51238   -2867.4853   -3171.7185    72.181583    62.511085    36.012401    184.80737   -312299.94 
   99220     19.85114    162495.72    72.181938    72.181939    36.012579          120    15174.243    19137.462   -33423.594    180.81907   -2946.9316   -3138.0439    72.181938    62.511393    36.012579    296.03729   -312299.97 
   99230     19.89093    162500.31    72.182617    72.182618    36.012917          120    15155.593    19148.529   -33427.581    303.38138   -3202.6016   -2959.7118    72.182617    62.511981    36.012917     292.1804   -312300.21 
   99240    19.756227    162507.02    72.183611    72.183612    36.013413          120    14940.859    19073.514   -33496.452    290.91615   -3374.8941   -2826.7493    72.183611    62.512841    36.013413    172.64031   -312299.98 
   99250    19.767672    162514.97    72.184789    72.184789    36.014001          120     14629.17    19073.642    -33681.06    369.69651   -3368.7401   -2950.7072    72.184789    62.513861    36.014001     7.250685   -312299.88 
   99260    19.833326    162522.87    72.185958    72.185959    36.014584          120    14426.641    19034.284   -34031.724    319.33885   -3351.3804   -2891.0168    72.185958    62.514874    36.014584   -190.26644   -312300.02 
   99270    19.942972    162529.36    72.186918    72.186918    36.015063          120    14485.208    18943.421   -34014.496    229.96765   -3421.0065   -2923.3315    72.186918    62.515705    36.015063   -195.28901   -312300.15 
   99280    19.877683    162534.35    72.187658    72.187658    36.015432          120    14649.757    18946.438   -33841.566    160.24466   -3328.3704   -3037.5004    72.187658    62.516346    36.015432   -81.790152   -312299.98 
   99290    19.803732    162538.54    72.188277    72.188277    36.015741          120    14592.995    19032.534   -33966.732    248.63398   -3270.3896   -3135.4031    72.188277    62.516882    36.015741   -113.73414   -312299.68 
   99300    19.855404    162541.83    72.188765    72.188765    36.015985          120    14633.598    19110.948   -34068.525    265.12052   -3125.7906   -3095.3087    72.188765    62.517305    36.015985   -107.99296   -312299.42 
   99310    19.966322    162544.18    72.189112    72.189113    36.016158          120    14497.592    18998.642   -34093.935    183.38277   -3134.9068   -3204.7666    72.189112    62.517606    36.016158   -199.23346    -312299.6 
   99320    19.946424    162544.99    72.189232    72.189232    36.016217          120    14494.231    18768.251   -34065.207    315.79035   -3184.6351   -3098.5068    72.189232    62.517709    36.016217   -267.57513   -312299.68 
   99330    19.802558    162543.87    72.189066    72.189067    36.016135          120    14629.026    18978.581   -34041.765     284.1228   -3307.7112   -2899.4365    72.189066    62.517566    36.016135   -144.71917   -312299.44 
   99340    20.009833    162541.58    72.188728    72.188728    36.015966          120    14689.153    19119.379    -34038.91    293.45373   -3224.1942   -2899.6224    72.188728    62.517273    36.015966   -76.792921   -312300.02 
   99350    19.723212    162538.67    72.188296    72.188297    36.015751          120    14730.651    19015.298    -34014.32    378.34813   -3140.3778   -2903.4286    72.188296    62.516899    36.015751   -89.457096   -312299.68 
   99360    20.030355    162535.16    72.187777    72.187777    36.015492          120    14802.895    18980.581   -33907.867    244.65634    -3240.189   -3050.5018    72.187777    62.516449    36.015492    -41.46355   -312299.99 
   99370    20.046602    162531.31    72.187208    72.187208    36.015208          120    14872.413    18995.174    -33952.34    184.59843   -3358.0651   -3249.0274    72.187208    62.515956    36.015208   -28.251206   -312299.78 
   99380    19.933886    162527.32    72.186616    72.186617    36.014913          120     14863.96    19100.872   -33861.451    259.83993   -3314.0627   -3273.3617    72.186616    62.515444    36.014913    34.460289   -312299.64 
   99390    19.919376    162523.65    72.186073    72.186074    36.014642          120     14807.37    19303.606   -33713.687    276.40204   -3371.4648   -3060.9488    72.186073    62.514974    36.014642    132.42987   -312299.81 
   99400    19.864368    162521.02    72.185683    72.185684    36.014447          120    14814.086    19503.255   -33673.963    303.32316   -3241.2597   -3005.9343    72.185683    62.514636    36.014447    214.45945   -312299.79 
   99410    19.981659    162519.99    72.185531    72.185532    36.014371          120     14748.92    19533.874   -33712.636    307.97581   -3155.4324   -3135.7986    72.185531    62.514504    36.014371    190.05249   -312299.85 
   99420    19.927682    162520.34    72.185583    72.185584    36.014397          120    14850.159    19334.536   -33944.946    203.01998   -3189.0841    -3302.055    72.185583     62.51455    36.014397    79.916696   -312299.71 
   99430    20.207904    162521.35    72.185732    72.185733    36.014472          120     14733.53    19135.628   -33778.893    209.79368   -3153.9072   -3191.3252    72.185732    62.514679    36.014472    30.088206    -312300.2 
   99440    20.061729    162522.44    72.185895    72.185895    36.014552          120    14525.999    18962.216   -33999.549    347.86244    -3252.512    -3041.705    72.185895    62.514819    36.014552   -170.44464   -312299.85 
   99450    20.043808     162522.3    72.185873    72.185874    36.014542          120    14530.343    18844.319   -34188.398    407.95774   -3188.5022   -2990.6362    72.185873    62.514801    36.014542   -271.24541   -312299.84 
   99460    19.995801    162520.24    72.185568    72.185569     36.01439          120    14674.675    19084.295   -34166.743    353.91074   -3351.2403    -2922.464    72.185568    62.514537     36.01439   -135.92429   -312299.67 
   99470    19.943907    162517.26    72.185127    72.185128     36.01417          120    14821.005     19355.59   -33707.505    467.00162   -3506.8337   -3245.3365    72.185127    62.514154     36.01417    156.36311   -312299.44 
   99480    20.044967    162515.46     72.18486     72.18486    36.014036          120    14882.126    19668.915   -33366.775    405.55709   -3412.3623   -3427.5615     72.18486    62.513923    36.014036    394.75538   -312299.79 
   99490    20.107713    162516.53    72.185019     72.18502    36.014116          120    15046.402    19613.391   -33447.369    250.59588   -3322.3735   -3270.6861    72.185019    62.514061    36.014116    404.14122   -312299.57 
   99500    20.122088    162520.59    72.185621    72.185621    36.014416          120     15013.33    19293.757   -33594.559    344.92795   -3312.4392   -3383.5879    72.185621    62.514582    36.014416    237.50949   -312299.59 
   99510    20.210371    162526.32    72.186468    72.186469    36.014839          120    14914.075    18916.484   -34056.139    341.72159   -3308.4005   -3256.6033    72.186468    62.515316    36.014839    -75.19316    -312299.6 
   99520    20.049359    162531.65    72.187258    72.187259    36.015233          120    14962.709    18838.456   -34036.178    355.95079   -3326.1316   -3004.0903    72.187258       62.516    36.015233   -78.337754   -312299.27 
   99530      20.1642     162536.4    72.187961    72.187962    36.015583          120    14962.027    19093.953     -33970.2    307.49433   -3251.9303    -2917.603    72.187961    62.516609    36.015583    28.593361    -312299.2 
   99540    20.205019    162541.15    72.188664    72.188664    36.015934          120    14762.763    19123.074   -34114.035    302.16385   -3354.8092   -2850.9547    72.188664    62.517217    36.015934   -76.066213   -312299.41 
   99550    20.099334    162545.25    72.189272    72.189272    36.016237          120    14545.749    18845.219   -33979.412     289.7436   -3411.0459   -3026.2705    72.189272    62.517744    36.016237   -196.14812   -312299.08 
   99560    20.059675     162547.9    72.189663    72.189663    36.016432          120     14372.91    18783.322   -33753.969    139.49029   -3258.4549   -3156.2443    72.189663    62.518082    36.016432   -199.24545   -312298.96 
   99570    20.109744       162549    72.189826    72.189827    36.016514          120    14450.643    18804.099   -33710.847    60.472145   -3236.7034   -3203.6057    72.189826    62.518224    36.016514   -152.03495    -312299.1 
   99580    20.225265    162548.82    72.189799      72.1898    36.016501          120    14405.514    18820.421   -33835.602    137.63127   -3187.8027   -3188.8121    72.189799    62.518201    36.016501   -203.22249   -312299.27 
   99590    20.139086    162547.18    72.189557    72.189558     36.01638          120     14471.27    19028.126   -33962.031    336.50381   -2901.8273   -3035.4824    72.189557    62.517991     36.01638   -154.21154   -312299.17 
   99600     20.22226    162544.31    72.189132    72.189132    36.016168          120    14493.838    19020.093   -34066.595    387.51139   -2950.2482   -3003.4244    72.189132    62.517623    36.016168   -184.22167   -312299.53 
   99610    19.913834    162540.04    72.188499      72.1885    36.015852          120    14286.384    19078.316   -34035.293    291.01653   -3065.3972   -2920.4231    72.188499    62.517075    36.015852   -223.53092   -312298.87 
   99620    20.148704    162534.17    72.187631    72.187632    36.015419          120    14387.667    19095.018   -33801.938    202.87284   -3183.1141   -2892.3286    72.187631    62.516323    36.015419   -106.41772   -312299.53 
   99630    20.142768    162527.57    72.186654    72.186654    36.014931          120    14725.896     19065.78   -33631.214    168.94345   -3128.9875   -2797.4131    72.186654    62.515477    36.014931    53.487564   -312299.36 
   99640      20.1372    162521.35    72.185733    72.185734    36.014472          120    14890.863    19128.269     -33747.3    220.64045   -3245.3157   -2739.7186    72.185733    62.514679    36.014472    90.610426    -312299.6 
   99650    20.058395    162515.86     72.18492     72.18492    36.014066          120    14880.193    19096.091   -33729.421    396.58539   -3300.5018   -2671.7753     72.18492    62.513975    36.014066    82.287742   -312299.44 
   99660    20.010721    162511.02    72.184203    72.184203    36.013708          120    14982.628    18923.505   -33760.693    590.95211   -3253.0621    -2868.471    72.184203    62.513354    36.013708    48.479923    -312299.2 
   99670    20.362261    162506.58    72.183546    72.183547    36.013381          120    14986.988    18951.115   -33904.726    521.00429   -3264.9129   -3188.3628    72.183546    62.512786    36.013381    11.125434   -312299.76 
   99680    20.060803    162502.31    72.182914    72.182914    36.013065          120    14925.409    19016.561   -33841.972     351.8214   -3133.0715   -3246.5291    72.182914    62.512238    36.013065     33.33261   -312299.35 
   99690    20.060399    162498.39    72.182333    72.182334    36.012776          120    14924.542    19122.952   -33623.859    281.21167   -3148.4877   -3225.8536    72.182333    62.511735    36.012776    141.21175   -312299.64 
   99700    19.948748    162495.59    72.181919    72.181919    36.012569          120    15008.145    19222.666   -33515.926    287.57029   -3139.7175    -2960.718    72.181919    62.511376    36.012569    238.29491   -312299.68 
   99710    20.157736    162494.56    72.181765    72.181766    36.012492          120    15076.717    19073.751   -33500.679    286.41717   -3119.5984   -2821.1616    72.181765    62.511243    36.012492    216.59618   -312300.29 
   99720    20.056637    162495.19    72.181859     72.18186    36.012539          120    14968.325    19054.607   -33528.356    363.81311   -3232.0487   -3002.8797    72.181859    62.511324    36.012539    164.85879      -312300 
   99730    19.973979    162497.04    72.182134    72.182134    36.012676          120    14886.639    19023.651   -33662.003    190.76007   -3221.9126    -3007.379    72.182134    62.511562    36.012676    82.762395   -312299.58 
   99740    20.212855    162499.61    72.182513    72.182514    36.012865          120    14943.003    19081.094   -33618.265    182.99436   -3124.1477   -2940.2092    72.182513    62.511891    36.012865    135.27725   -312300.25 
   99750    19.742964    162503.23     72.18305     72.18305    36.013133          120    14968.012     19383.87   -33624.293    242.99051   -3306.2234   -2915.2571     72.18305    62.512355    36.013133    242.52966   -312299.45 
   99760    20.026919    162508.59    72.183843    72.183844    36.013529          120    14950.706     19386.93   -33600.763    107.17221   -3340.7177   -3175.4767    72.183843    62.513042    36.013529    245.62414   -312299.95 
   99770    20.009548    162515.78    72.184908    72.184909    36.014061          120    14866.828    19384.567   -33634.806    159.06915   -3309.5219   -3307.3187    72.184908    62.513965    36.014061    205.52969   -312300.22 
   99780    19.905032    162524.41    72.186185    72.186186    36.014698          120    14807.856    19189.452   -33918.887    252.61204   -3118.1551   -3154.7301    72.186185    62.515071    36.014698    26.140342    -312299.9 
   99790    19.979604    162533.19    72.187486    72.187487    36.015346          120    14707.602    18980.655   -34047.587    326.29274   -3100.8824   -3168.7715    72.187486    62.516197    36.015346   -119.77688   -312299.95 
   99800    20.015052    162540.91    72.188629    72.188629    36.015917          120    14410.598    18967.512    -34277.27    254.21905   -3189.6488   -2998.4078    72.188629    62.517187    36.015917   -299.71973   -312299.88 
   99810    19.778794    162546.33    72.189431    72.189432    36.016317          120    14287.744    18905.911   -34237.938    225.93156   -3279.7967    -2911.583    72.189431    62.517882    36.016317   -348.09446   -312299.59 
   99820    19.837734    162549.04    72.189831    72.189832    36.016517          120    14236.846      19002.5   -34243.465    205.44079   -3243.7533   -2918.2417    72.189831    62.518229    36.016517   -334.70645   -312299.82 
   99830    19.919284    162549.23    72.189861    72.189861    36.016531          120    14318.346    19048.881   -33958.829    249.10941   -3093.6847   -2913.5365    72.189861    62.518254    36.016531   -197.20078    -312299.7 
   99840    19.867109    162547.88    72.189661    72.189661    36.016431          120    14451.634    19068.585   -33877.281    229.93562   -3176.2208   -2974.2526    72.189661    62.518081    36.016431   -119.02073   -312299.46 
   99850    19.779745    162545.43    72.189297    72.189298     36.01625          120    14464.524    18996.469   -34264.566    247.00626   -3111.5728   -3025.7778    72.189297    62.517766     36.01625   -267.85764   -312299.44 
   99860    19.956346    162541.12    72.188659    72.188659    36.015932          120    14544.115    19076.765   -34209.421    112.54993   -3115.8449    -3037.093    72.188659    62.517213    36.015932    -196.1807   -312299.95 
   99870    19.761635    162535.23    72.187787    72.187788    36.015497          120    14629.193    18995.339   -34241.799    104.41925   -3190.2714   -3132.4893    72.187787    62.516458    36.015497   -205.75565   -312299.76 
   99880    20.032661    162527.91    72.186703    72.186704    36.014956          120    14759.052    18993.655   -34014.841    167.81877   -3256.6958   -3201.9979    72.186703     62.51552    36.014956   -87.377969   -312300.64 
   99890    19.752656    162520.04    72.185539     72.18554    36.014375          120    14765.507    19301.415   -33698.641    64.617896   -3289.0786   -3245.3505    72.185539    62.514511    36.014375    122.76053   -312300.07 
   99900    19.937577    162513.14    72.184517    72.184517    36.013865          120    14948.543    19313.004   -33564.774    100.97089    -3205.086   -3123.5389    72.184517    62.513626    36.013865    232.25773   -312300.44 
   99910     19.68043    162507.99    72.183755    72.183755    36.013485          120    14983.644    19243.097   -33512.887    136.50356     -3331.66   -3062.0522    72.183755    62.512966    36.013485    237.95127   -312299.95 
   99920    19.868189    162504.78    72.183279    72.183279    36.013247          120    15055.603    19274.773   -33383.333    202.61369   -3347.4691   -2903.9224    72.183279    62.512554    36.013247    315.68074   -312300.37 
   99930    19.900754    162504.02    72.183166    72.183167    36.013191          120    15107.607    19432.778   -33454.038    225.12126   -3381.3726   -2928.4308    72.183166    62.512457    36.013191    362.11555   -312300.14 
   99940    19.780903    162505.93    72.183449     72.18345    36.013333          120    14828.458    19423.021   -33535.824    265.35247   -3364.6881   -2852.5104    72.183449    62.512701    36.013333    238.55186   -312299.82 
   99950    19.887773    162509.64    72.183999       72.184    36.013607          120    14566.189    19367.677   -33644.602     337.3648   -3313.0856   -2985.6595    72.183999    62.513178    36.013607    96.421242   -312300.03 
   99960    19.812498     162514.1    72.184659    72.184659    36.013936          120    14574.438    19332.084   -33863.865    379.88493   -3304.3276   -3206.2734    72.184659    62.513749    36.013936    14.219011   -312299.69 
   99970    19.904791    162518.78    72.185352    72.185353    36.014282          120    14940.728    19355.019   -33876.474    381.03213   -3223.0622   -3133.5829    72.185352     62.51435    36.014282    139.75765   -312299.79 
   99980    19.844764    162524.44    72.186189     72.18619      36.0147          120    14955.958    19338.865   -33714.899    344.77129   -3241.4059   -3089.9359    72.186189    62.515074      36.0147    193.30824   -312299.54 
   99990    20.021631    162531.48    72.187233    72.187233     36.01522          120    14915.815    19220.372   -33679.574    315.88072   -3079.0597   -3113.8572    72.187233    62.515978     36.01522    152.20458   -312299.83 
  100000    20.006919    162539.48    72.188416    72.188417    36.015811          120    14634.997    19115.938   -34009.621    119.55811   -3111.0694   -3158.1185    72.188416    62.517003    36.015811   -86.228557   -312299.86 
Loop time of 34454.8 on 1 procs for 100000 steps with 14848 atoms

Performance: 0.251 ns/day, 95.708 hours/ns, 2.902 timesteps/s
100.0% CPU use with 1 MPI tasks x no OpenMP threads

MPI task timing breakdown:
Section |  min time  |  avg time  |  max time  |%varavg| %total
---------------------------------------------------------------
Pair    | 31462      | 31462      | 31462      |   0.0 | 91.31
Bond    | 0.058012   | 0.058012   | 0.058012   |   0.0 |  0.00
Kspace  | 1471.3     | 1471.3     | 1471.3     |   0.0 |  4.27
Neigh   | 665.68     | 665.68     | 665.68     |   0.0 |  1.93
Comm    | 36.943     | 36.943     | 36.943     |   0.0 |  0.11
Output  | 1.6505     | 1.6505     | 1.6505     |   0.0 |  0.00
Modify  | 802.26     | 802.26     | 802.26     |   0.0 |  2.33
Other   |            | 15.31      |            |       |  0.04

Nlocal:    14848 ave 14848 max 14848 min
Histogram: 1 0 0 0 0 0 0 0 0 0
Nghost:    46910 ave 46910 max 46910 min
Histogram: 1 0 0 0 0 0 0 0 0 0
Neighs:    1.01274e+07 ave 1.01274e+07 max 1.01274e+07 min
Histogram: 1 0 0 0 0 0 0 0 0 0

Total # of neighbors = 10127403
Ave neighs/atom = 682.072
Ave special neighs/atom = 0
Neighbor list builds = 1976
Dangerous builds = 0
 
All done!
Total wall time: 9:40:38
