LAMMPS (16 Mar 2018)
Reading data file ...
  triclinic box = (0 0 0) to (9.208 7.97436 18.376) with tilt (-4.604 0 0)
  1 by 1 by 1 MPI processor grid
  reading atoms ...
  116 atoms
Finding 1-2 1-3 1-4 neighbors ...
  special bond factors lj:   0          0          0         
  special bond factors coul: 0          0          0         
  0 = max # of 1-2 neighbors
  0 = max # of 1-3 neighbors
  0 = max # of 1-4 neighbors
  1 = max # of special neighbors
Replicating atoms ...
  triclinic box = (0 0 0) to (73.664 63.7949 36.752) with tilt (-36.832 0 0)
  1 by 1 by 1 MPI processor grid
  14848 atoms
Finding 1-2 1-3 1-4 neighbors ...
  special bond factors lj:   0          0          0         
  special bond factors coul: 0          0          0         
  0 = max # of 1-2 neighbors
  0 = max # of 1-3 neighbors
  0 = max # of 1-4 neighbors
  1 = max # of special neighbors
  Time spent = 0.00514102 secs
PPPM initialization ...
WARNING: System is not charge neutral, net charge = -0.2048 (../kspace.cpp:302)
  using 12-bit tables for long-range coulomb (../kspace.cpp:321)
  G vector (1/distance) = 0.201681
  grid = 36 50 24
  stencil order = 5
  estimated absolute RMS force accuracy = 0.00105653
  estimated relative force accuracy = 7.33721e-05
  using double precision FFTs
  3d grid and FFT values/proc = 65395 43200
Neighbor list info ...
  update every 1 steps, delay 0 steps, check yes
  max neighbors/atom: 2000, page size: 100000
  master list distance cutoff = 15.3
  ghost atom cutoff = 15.3
  binsize = 7.65, bins = 15 9 5
  3 neighbor lists, perpetual/occasional/extra = 3 0 0
  (1) pair morse, perpetual
      attributes: half, newton on
      pair build: half/bin/newton/tri
      stencil: half/bin/3d/newton/tri
      bin: standard
  (2) pair buck, perpetual, copy from (1)
      attributes: half, newton on
      pair build: copy
      stencil: none
      bin: none
  (3) pair lj/cut/coul/long, perpetual, copy from (1)
      attributes: half, newton on
      pair build: copy
      stencil: none
      bin: none
Setting up Verlet run ...
  Unit style    : metal
  Current step  : 0
  Time step     : 0.001
Per MPI rank memory allocation (min/avg/max) = 145.7 | 145.7 | 145.7 Mbytes
Step Temp Volume Cella Cellb Cellc CellGamma Pxx Pyy Pzz Pxy Pxz Pyz Lx Ly Lz Press PotEng 
       0           40    172711.88       73.664    73.664001       36.752          120   -211050.95   -211050.73   -282039.85    4.4491676   -1.0212214    1.3588693       73.664    63.794896       36.752   -234713.85   -309191.56 
      10    234.79542       172204    73.591724    73.591724     36.71594          120   -212712.24   -212765.06   -260288.99    49.743879  -0.45465155   -69.426562    73.591724    63.732303     36.71594   -228588.76   -309676.55 
      20    465.18308    170823.09    73.394484    73.394484    36.617535          120   -206331.35   -206125.65   -192593.32     16.02701   -101.19101   -146.07393    73.394484    63.561488    36.617535   -201683.44   -310341.94 
      30    372.85061    169215.23    73.163484    73.163484    36.502286          120   -184683.01   -184321.57   -101583.13   -126.77115   -358.06806   -179.86294    73.163484    63.361436    36.502286   -156862.57   -310414.65 
      40    121.58392    167927.26    72.977384    72.977385    36.409438          120   -158749.28   -158451.55   -24844.492   -287.57248   -718.40206   -220.64308    72.977384    63.200269    36.409438   -114015.11   -310074.45 
      50    175.13325    166871.24    72.824089     72.82409    36.332957          120   -130606.26   -130356.51    4719.7551   -329.69374   -944.54236   -378.32262    72.824089    63.067512    36.332957   -85414.337   -310245.02 
      60    483.00127    165926.43    72.686387    72.686387    36.264255          120    -99684.19    -99357.44   -31020.532   -471.25432   -1669.7898   -369.88187    72.686387    62.948258    36.264255   -76687.387   -310918.34 
      70    649.45115    165061.67    72.559893    72.559894    36.201146          120   -63990.541   -63547.151   -89852.167   -563.18215   -2382.7354     -192.304    72.559893    62.838712    36.201146   -72463.286   -311384.08 
      80    505.98157    164280.82    72.445295    72.445295    36.143971          120    -27747.39    -27419.78   -119670.24    -912.3086   -2696.8764    54.050979    72.445295    62.739466    36.143971   -58279.136   -311248.83 
      90    290.26534    163607.71    72.346215    72.346215    36.094538          120   -3510.3404   -3449.7544   -118214.71   -1299.2661   -3243.8283    371.91769    72.346215     62.65366    36.094538   -41724.935   -310919.33 
     100    368.48071    163056.39    72.264861    72.264862     36.05395          120    18390.058    18881.692   -88822.348   -1473.4875   -3507.1209    581.71184    72.264861    62.583206     36.05395   -17183.533   -311129.39 
     110    488.48854    162649.75    72.204737    72.204738    36.023954          120    34824.558    35853.235   -43029.139   -1447.5346    -3364.654    475.54413    72.204737    62.531138    36.023954     9216.218   -311444.39 
     120    415.92153    162406.57    72.168735    72.168736    36.005992          120    35309.969    36697.327    770.89355   -1411.8582   -3730.0642    374.93422    72.168735    62.499959    36.005992    24259.396   -311394.96 
     130    309.76953    162313.55    72.154953    72.154954    35.999115          120    24723.247    26322.647    27398.929    -1484.939    -4273.763   -102.60224    72.154953    62.488023    35.999115    26148.274   -311257.87 
     140    314.69478    162330.37    72.157446    72.157447    36.000359          120    15868.548    17168.166    23832.728   -1592.5671    -4294.822   -62.864284    72.157446    62.490182    36.000359    18956.481   -311322.14 
     150    381.65027    162402.48     72.16813     72.16813    36.005689          120    8737.7082    9932.8588    -12012.29   -1531.1164    -4043.068    342.66457     72.16813    62.499434    36.005689    2219.4255   -311517.19 
     160    388.91968    162462.85    72.177071    72.177071     36.01015          120    821.20519    3036.9043   -50769.033   -1508.5341   -3943.3563    667.89461    72.177071    62.507178     36.01015   -15636.974   -311609.86 
     170    317.83707    162457.88    72.176334    72.176334    36.009783          120   -746.57429    2035.4032   -73150.899   -1478.3126   -3829.2487    675.58349    72.176334    62.506539    36.009783   -23954.023   -311544.56 
     180    265.80267    162374.99    72.164057    72.164058    36.003658          120    5722.7066    8746.6406   -77507.402   -1470.4324   -3389.0349    366.32056    72.164057    62.495907    36.003658   -21012.685   -311499.73 
     190    281.62143    162239.78    72.144021    72.144021    35.993661          120     12748.54    15854.548   -62661.215   -1161.8999   -2878.3294    248.31022    72.144021    62.478555    35.993661   -11352.709   -311581.01 
     200    301.69995    162094.59    72.122494    72.122495    35.982921          120    16403.854    19173.357   -35204.045   -1042.8894   -2550.2205   -269.12826    72.122494    62.459913    35.982921    124.38884   -311676.38 
     210    272.45177    161979.08    72.105358    72.105358    35.974372          120    17987.775    20745.506   -11400.522   -625.50729   -2701.4148   -412.10255    72.105358    62.445072    35.974372    9110.9198   -311676.47 
     220    238.20465    161916.69    72.096099      72.0961    35.969752          120    18637.226    21302.585   -1118.1355   -398.76173   -3500.0031   -195.51525    72.096099    62.437054    35.969752    12940.558   -311657.34 
     230    235.64897    161909.15     72.09498     72.09498    35.969194          120    18130.097    19735.068   -7406.3229   -597.94855   -4186.3276   -221.51629     72.09498    62.436085    35.969194    10152.947   -311694.11 
     240     249.1746    161936.15    72.098987    72.098988    35.971193          120    14621.129     15323.16   -24995.335    -747.8675   -4485.5953   -37.408897    72.098987    62.439555    35.971193    1649.6509   -311764.23 
     250    241.35975    161963.65    72.103069    72.103069     35.97323          120    11885.149    11840.778   -43730.666   -626.50886   -4390.5822    37.777506    72.103069     62.44309     35.97323   -6668.2464    -311794.4 
     260     214.7185     161963.9    72.103106    72.103107    35.973248          120    12099.595    11873.662   -56678.712   -714.89791   -4082.1642   -4.9561309    72.103106    62.443122    35.973248   -10901.818   -311784.32 
     270    198.83359    161927.34     72.09768    72.097681    35.970541          120    13990.745    14000.554   -57664.953   -839.04179   -3978.9077    44.461472     72.09768    62.438423    35.970541   -9891.2179   -311789.22 
     280    203.14066    161863.67    72.088228    72.088229    35.965826          120    16510.554    17300.056   -46883.052   -700.61047   -3844.6207     197.7456    72.088228    62.430238    35.965826   -4357.4806   -311832.02 
     290    203.34415    161796.04    72.078187    72.078187    35.960816          120    19614.436    21260.366   -31674.169   -925.94546   -3798.8862    183.93084    72.078187    62.421541    35.960816    3066.8777   -311868.05 
     300    190.54206    161749.77    72.071315    72.071316    35.957387          120    21417.719    23331.899   -19486.331   -971.39885   -3828.4439    -102.9839    72.071315    62.415591    35.957387    8421.0956   -311877.94 
     310    175.95899    161739.33    72.069765    72.069765    35.956614          120    20452.212    22128.962   -14204.741   -1163.4495   -4101.0515   -370.70243    72.069765    62.414248    35.956614    9458.8111   -311881.19 
     320     173.5486    161762.46    72.073201    72.073201    35.958328          120    17128.751     18698.21   -17511.119    -1317.899   -4146.3235   -423.55781    72.073201    62.417224    35.958328    6105.2807   -311906.07 
     330    175.26153    161802.91    72.079207    72.079208    35.961325          120    14234.393     15852.95   -27267.299   -1364.7804   -4010.7358   -550.47699    72.079207    62.422425    35.961325     940.0144   -311938.06 
     340    167.58633    161840.85    72.084841    72.084841    35.964135          120    13700.998    15359.904   -38075.535   -1290.0868   -3903.1064   -323.62129    72.084841    62.427304    35.964135   -3004.8777   -311951.53 
     350     154.0573    161863.13    72.088149     72.08815    35.965786          120    14113.169    16355.449   -44293.518    -1274.801   -3428.3197   -527.52399    72.088149    62.430169    35.965786      -4608.3      -311951 
     360     145.2758    161866.64    72.088669     72.08867    35.966045          120    15287.412    17827.775   -43510.372   -1416.9405   -3045.8233    -595.4108    72.088669    62.430619    35.966045   -3465.0615   -311956.72 
     370     144.1231    161858.02    72.087391    72.087391    35.965407          120     17270.25    19319.405   -37505.107   -1248.7423   -2852.8218    -147.5806    72.087391    62.429512    35.965407   -305.15094   -311976.88 
     380     142.0879    161849.69    72.086154    72.086155    35.964791          120    18646.461    20006.921   -29709.839   -1121.0325   -2894.1454   -286.00851    72.086154    62.428441    35.964791    2981.1812   -311995.06 
     390    135.53455    161852.81    72.086616    72.086617    35.965021          120    18378.118    19514.911     -23441.7   -1113.0998   -3093.3764   -11.865155    72.086616    62.428842    35.965021    4817.1098   -312003.96 
     400    128.46674    161872.14    72.089486    72.089487    35.966453          120    17238.678    18562.223   -21741.772   -1167.5048   -3262.3695    280.86011    72.089486    62.431327    35.966453    4686.3763   -312009.87 
     410    127.31352     161905.2    72.094394    72.094395    35.968902          120    16416.828    17838.416   -24902.407   -1267.7548   -3273.9927    218.07913    72.094394    62.435577    35.968902    3117.6123   -312026.93 
     420    124.53504     161944.8    72.100271    72.100271    35.971834          120    15991.484     17238.16    -30865.71    -1375.961   -3224.5318    390.89766    72.100271    62.440667    35.971834    787.97779   -312039.77 
     430    118.87902    161981.88    72.105773    72.105774    35.974579          120    15523.362    16055.039   -36994.173   -1531.9374   -3354.6661    651.27189    72.105773    62.445432    35.974579   -1805.2573   -312046.26 
     440    112.63275    162008.05    72.109657    72.109657    35.976516          120    15321.797    15554.529   -40213.993   -1638.9831   -3188.1614    752.07671    72.109657    62.448795    35.976516   -3112.5554   -312050.53 
     450    110.26732    162020.29    72.111472    72.111472    35.977422          120    15734.619     16186.44   -39521.113    -1695.364   -2693.1321    622.24363    72.111472    62.450367    35.977422   -2533.3513   -312061.01 
     460    108.26454    162022.27    72.111766    72.111766    35.977569          120     16544.21    17148.282   -35965.273   -1559.6721   -2308.1997    236.44668    72.111766    62.450622    35.977569   -757.59333   -312071.83 
     470    105.88163    162021.51    72.111654    72.111655    35.977513          120    17665.546    17645.167   -30763.969   -1260.3464   -2243.8346   -33.694959    72.111654    62.450525    35.977513    1515.5811   -312081.72 
     480    100.86018    162026.22    72.112352    72.112352    35.977861          120    18251.738     18433.66   -26990.717   -1057.0495   -2411.1783   -69.944588    72.112352    62.451129    35.977861    3231.5607   -312085.89 
     490    96.846926     162041.6    72.114634    72.114635       35.979          120    18200.714    18766.068   -26436.634   -1015.4601   -2596.8762    243.57785    72.114634    62.453106       35.979    3510.0494   -312091.06 
     500    95.488258    162067.34    72.118452    72.118452    35.980904          120    17251.494     18244.66   -28775.083   -995.88515   -2569.5462    682.26056    72.118452    62.456412    35.980904    2240.3569   -312100.94 
     510    92.950247    162097.86    72.122978    72.122979    35.983163          120     15938.33    17211.251   -32555.177   -870.10195   -2616.0315     725.2245    72.122978    62.460332    35.983163    198.13489   -312108.02 
     520    89.636912    162125.54    72.127083    72.127084    35.985211          120    15200.435    16292.513    -36293.77   -796.50039   -2779.9794    741.68251    72.127083    62.463887    35.985211   -1600.2743   -312112.73 
     530    87.229971     162144.5    72.129896    72.129896    35.986614          120    15194.467    16127.671   -38278.934    -611.4359   -2673.3808    912.56619    72.129896    62.466323    35.986614   -2318.9319   -312118.54 
     540    84.230056    162153.28    72.131197    72.131198    35.987263          120    15672.766    16717.442   -37716.342   -480.65373   -2290.5716    1031.5975    72.131197     62.46745    35.987263   -1775.3776   -312122.98 
     550     82.77328    162154.85     72.13143     72.13143    35.987379          120    16013.858    17350.819   -35003.418   -551.58472   -1944.8645     996.1684     72.13143    62.467651    35.987379   -546.24678   -312129.76 
     560    80.931439    162154.36    72.131357    72.131358    35.987343          120    16559.451    17771.465   -31927.114   -644.10049   -1927.7835    860.97332    72.131357    62.467588    35.987343    801.26729   -312135.73 
     570    78.938136    162156.64    72.131695    72.131696    35.987512          120    16932.285    17823.332   -30414.283   -637.53003   -1994.3541    608.79569    72.131695    62.467881    35.987512    1447.1112   -312141.16 
     580    76.578834    162163.67    72.132738    72.132739    35.988032          120    16761.629    17390.509    -30399.99   -839.18253   -2258.1262    440.51351    72.132738    62.468784    35.988032    1250.7159   -312145.54 
     590    75.051028    162174.32    72.134317    72.134318     35.98882          120    16240.057    17076.325   -31601.215   -936.06532    -2518.027    295.83114    72.134317    62.470152     35.98882    571.72231   -312150.67 
     600    73.769055    162185.86    72.136027    72.136028    35.989673          120    16225.483    16970.289   -33845.508   -905.44963   -2728.0551    334.01073    72.136027    62.471633    35.989673   -216.57877   -312156.65 
     610     72.02257    162195.35    72.137434    72.137435    35.990375          120    16148.541    16925.013    -35970.33   -825.75035   -2697.9158    573.52315    72.137434    62.472851    35.990375   -965.59218   -312161.47 
     620    69.485998    162200.44     72.13819     72.13819    35.990752          120    16085.732    17002.445   -36863.637   -816.23468   -2402.8451    540.89404     72.13819    62.473506    35.990752   -1258.4869   -312164.24 
     630    67.279682    162200.63    72.138217    72.138217    35.990765          120    16181.204    17347.255   -36170.432   -957.35664   -2230.3915    239.18902    72.138217    62.473529    35.990765   -880.65754   -312167.17 
     640    65.896314    162197.79    72.137796    72.137797    35.990556          120    16621.889    17917.816   -34288.518   -1004.6586   -1826.6683    66.194267    72.137796    62.473165    35.990556    83.729146   -312171.23 
     650    64.515593    162195.57    72.137467    72.137467    35.990391          120    17211.718    18283.833   -32295.144   -1073.7465    -1730.571  -0.61681408    72.137467    62.472879    35.990391    1066.8025    -312175.2 
     660    63.001603     162197.4    72.137739     72.13774    35.990527          120    17595.889    18563.175   -30923.253   -1005.6455   -1700.1783    345.99637    72.137739    62.473115    35.990527    1745.2703   -312178.32 
     670    61.530099    162205.23      72.1389    72.138901    35.991106          120    17469.523     18477.62   -30739.412   -848.45425   -1865.7179    505.43921      72.1389    62.474121    35.991106    1735.9104   -312181.51 
     680    60.773993    162218.41    72.140854    72.140854    35.992081          120    16813.373    18142.433   -31692.856   -836.42303   -2181.8915    557.86758    72.140854    62.475813    35.992081    1087.6501   -312185.65 
     690    59.006641    162234.15    72.143186    72.143187    35.993245          120    16274.811    17811.111   -33533.348   -856.75314   -2237.6509     580.1453    72.143186    62.477833    35.993245    184.19146   -312187.95 
     700    57.058103    162248.98    72.145384    72.145385    35.994341          120    15799.976    17460.489   -35122.895    -969.9751    -2538.762    521.33239    72.145384    62.479736    35.994341   -620.80998   -312189.19 
     710    55.509003    162260.28     72.14706    72.147061    35.995177          120    16001.909    17324.271   -35527.822   -1138.6655   -2483.6184     381.3902     72.14706    62.481188    35.995177   -733.88073    -312191.4 
     720    54.715981    162267.97    72.148199    72.148199    35.995746          120    16293.585    17691.558   -35008.459   -928.95957    -2385.213    81.139352    72.148199    62.482174    35.995746   -341.10531    -312194.7 
     730    53.909828    162273.67    72.149044    72.149044    35.996167          120    16378.956    18023.243   -34159.338   -697.06296   -2310.2795   -79.934794    72.149044    62.482905    35.996167    80.953364   -312197.81 
     740    52.841318    162279.08    72.149846    72.149846    35.996567          120    16323.027    17936.556   -33274.943   -874.39358   -2132.2745    -152.3591    72.149846      62.4836    35.996567     328.2135   -312200.55 
     750    52.243265     162285.1    72.150738    72.150739    35.997013          120    16054.919    17625.923    -32744.87   -1061.2806   -2152.7561     59.14763    72.150738    62.484373    35.997013    311.99051   -312203.85 
     760    51.097712    162291.64    72.151707    72.151707    35.997496          120    15841.383    17374.718   -32928.496   -1109.4696   -2018.8922    250.12202    72.151707    62.485211    35.997496     95.86828   -312205.45 
     770     49.70258    162297.89    72.152634    72.152634    35.997958          120    15820.227    17317.272   -33487.423   -1090.9522   -1992.9035    490.34304    72.152634    62.486014    35.997958   -116.64134   -312206.48 
     780    49.014412    162303.18    72.153417    72.153417    35.998349          120    15949.677    17545.118   -34045.317   -1058.5643   -2063.6739    664.18437    72.153417    62.486693    35.998349   -183.50722   -312208.65 
     790    48.441309    162307.28    72.154025    72.154026    35.998652          120    16051.686    17586.018    -34437.52    -1113.811   -2127.1511    621.49393    72.154025    62.487219    35.998652    -266.6053   -312211.01 
     800    47.790075    162310.02    72.154431    72.154431    35.998855          120    16071.606    17342.584   -34601.568   -1273.9737   -2271.2707    556.87497    72.154431    62.487571    35.998855   -395.79275   -312213.08 
     810    47.430951    162310.99    72.154575    72.154576    35.998927          120    15903.463    17035.925   -34905.939   -1365.4608   -2295.1493    412.65838    72.154575    62.487696    35.998927   -655.51667   -312215.88 
     820    46.539873    162309.52    72.154357    72.154357    35.998818          120    15829.214    16842.085    -34904.33   -1267.0376    -2203.907    303.28384    72.154357    62.487507    35.998818   -744.34365   -312217.69 
     830    45.768504    162305.52    72.153764    72.153764    35.998522          120    15956.873    16807.313   -34477.644   -1291.4997   -2014.1113    178.74331    72.153764    62.486993    35.998522   -571.15261   -312219.43 
     840    44.488556    162299.87    72.152927    72.152928    35.998105          120    16326.426    17006.035    -33609.64    -1333.952   -1999.7822    161.25487    72.152927    62.486269    35.998105   -92.392813   -312220.06 
     850    44.042408     162294.4    72.152117    72.152117      35.9977          120    16656.616    17508.912   -32959.545   -1407.5535   -2264.9828    117.01841    72.152117    62.485567      35.9977    401.99422   -312221.95 
     860    43.410381    162290.78     72.15158    72.151581    35.997433          120    16783.419     17778.58   -32981.291   -1404.5088   -2532.9989    181.64043     72.15158    62.485102    35.997433    526.90304   -312223.24 
     870    43.100559     162289.3     72.15136     72.15136    35.997323          120    16742.477    17537.398   -33384.303   -1332.1856   -2477.9862    188.05475     72.15136    62.484911    35.997323    298.52385   -312225.28 
     880    42.871926    162288.99    72.151315    72.151316      35.9973          120    16329.759    17303.244   -33679.559   -1329.5902   -2531.4705    337.54256    72.151315    62.484872      35.9973   -15.518766   -312227.26 
     890    42.247655    162288.68    72.151269     72.15127    35.997277          120    16167.165    17090.506    -33895.73   -1151.7452   -2512.6181    509.90613    72.151269    62.484833    35.997277   -212.68639   -312228.45 
     900    41.410052    162287.72    72.151125    72.151126    35.997206          120     16183.76    17162.068   -33689.008   -891.23459    -2313.413      461.192    72.151125    62.484708    35.997206   -114.39336    -312229.1 
     910    40.965186    162286.44    72.150936    72.150936    35.997111          120    16187.302    17368.382   -33275.061   -750.09891   -2283.2182    344.88395    72.150936    62.484544    35.997111    93.540924    -312230.4 
     920    40.869405    162285.63    72.150816    72.150817    35.997051          120    16415.417    17547.196   -32952.967   -656.04887   -2407.2289     65.87567    72.150816     62.48444    35.997051    336.54834   -312231.89 
     930    40.090077    162286.11    72.150888    72.150888    35.997087          120    16462.011    17832.523   -32806.568   -614.23063   -2411.3049   -70.489484    72.150888    62.484502    35.997087    495.98861   -312232.45 
     940    39.611509    162288.29    72.151211    72.151212    35.997249          120    16346.692    17921.357   -33084.227   -693.00076   -2597.1834   -159.87439    72.151211    62.484783    35.997249    394.60751   -312233.63 
     950    39.198657    162291.68    72.151713    72.151714    35.997499          120    16292.159    17541.443   -33572.868   -824.38486   -2831.3474   -207.24386    72.151713    62.485217    35.997499     86.91133   -312234.69 
     960    39.171798    162295.09    72.152218    72.152219    35.997751          120    16211.751    17100.378   -33996.193   -941.94401   -2980.3267   -203.41335    72.152218    62.485655    35.997751   -228.02131    -312236.2 
     970    39.007469     162297.4    72.152561    72.152562    35.997922          120    16207.051    16914.336   -34400.483     -1067.06   -3109.2032   -241.27785    72.152561    62.485951    35.997922   -426.36539   -312237.41 
     980     38.47124    162297.96    72.152644    72.152645    35.997963          120    16197.289    16778.049   -34653.113   -1155.8461   -3204.2776   -292.00004    72.152644    62.486023    35.997963   -559.25845   -312237.55 
     990      38.1528    162296.45     72.15242    72.152421    35.997852          120    16068.774    16863.997   -34552.918   -1265.7267   -3126.5524   -465.12256     72.15242    62.485829    35.997852   -540.04915   -312237.85 
    1000    37.728599    162293.13    72.151928    72.151928    35.997606          120     16173.73    17194.732   -34261.954   -1309.5521   -2806.1625   -545.95324    72.151928    62.485403    35.997606   -297.83087   -312238.11 
Loop time of 379.992 on 1 procs for 1000 steps with 14848 atoms

Performance: 0.227 ns/day, 105.553 hours/ns, 2.632 timesteps/s
99.9% CPU use with 1 MPI tasks x no OpenMP threads

MPI task timing breakdown:
Section |  min time  |  avg time  |  max time  |%varavg| %total
---------------------------------------------------------------
Pair    | 317.39     | 317.39     | 317.39     |   0.0 | 83.52
Bond    | 0.00052977 | 0.00052977 | 0.00052977 |   0.0 |  0.00
Kspace  | 14.63      | 14.63      | 14.63      |   0.0 |  3.85
Neigh   | 38.885     | 38.885     | 38.885     |   0.0 | 10.23
Comm    | 0.48654    | 0.48654    | 0.48654    |   0.0 |  0.13
Output  | 0.013688   | 0.013688   | 0.013688   |   0.0 |  0.00
Modify  | 8.4071     | 8.4071     | 8.4071     |   0.0 |  2.21
Other   |            | 0.1814     |            |       |  0.05

Nlocal:    14848 ave 14848 max 14848 min
Histogram: 1 0 0 0 0 0 0 0 0 0
Nghost:    46946 ave 46946 max 46946 min
Histogram: 1 0 0 0 0 0 0 0 0 0
Neighs:    1.014e+07 ave 1.014e+07 max 1.014e+07 min
Histogram: 1 0 0 0 0 0 0 0 0 0

Total # of neighbors = 10139968
Ave neighs/atom = 682.918
Ave special neighs/atom = 0
Neighbor list builds = 115
Dangerous builds = 0
PPPM initialization ...
  using 12-bit tables for long-range coulomb (../kspace.cpp:321)
  G vector (1/distance) = 0.202698
  grid = 36 50 24
  stencil order = 5
  estimated absolute RMS force accuracy = 0.000991872
  estimated relative force accuracy = 6.88817e-05
  using double precision FFTs
  3d grid and FFT values/proc = 65395 43200
Setting up Verlet run ...
  Unit style    : metal
  Current step  : 0
  Time step     : 0.001
Per MPI rank memory allocation (min/avg/max) = 152.6 | 152.6 | 152.6 Mbytes
Step Temp Volume Cella Cellb Cellc CellGamma Pxx Pyy Pzz Pxy Pxz Pyz Lx Ly Lz Press PotEng 
       0    37.728599    162293.13    72.151928    72.151928    35.997606          120    16188.347    17210.016    -34251.64   -1309.3496   -2805.9869   -546.13388    72.151928    62.485403    35.997606   -284.42561   -312237.89 
      10    37.674554    162289.07    72.151327    72.151327    35.997306          120    16367.459    17798.123   -33764.144   -1164.4949   -2737.7493   -441.90318    72.151327    62.484883    35.997306    133.81273   -312238.67 
      20    37.348713    162285.82    72.150844    72.150845    35.997065          120    16654.674    18093.589   -33329.927   -967.12104   -2487.7046   -238.71953    72.150844    62.484465    35.997065    472.77861   -312239.22 
      30    37.438534    162284.52    72.150652    72.150653     35.99697          120    16930.338    18028.127   -33051.261    -926.3972   -2334.9669   -79.791835    72.150652    62.484299     35.99697    635.73471   -312240.16 
      40    37.505344    162285.57    72.150807    72.150808    35.997047          120    16882.976    17787.838   -33254.855   -1039.4787   -2370.0316   -207.63387    72.150807    62.484433    35.997047     471.9865      -312241 
      50    37.317906    162288.22      72.1512    72.151201    35.997243          120    16883.877    17361.647   -33719.972   -1068.9156   -2475.0857   -441.32093      72.1512    62.484773    35.997243    175.18424   -312241.15 
      60    36.943748    162291.35    72.151664    72.151665    35.997474          120    16869.294    17150.878    -33980.89   -1106.2678   -2443.0004   -623.76752    72.151664    62.485175    35.997474    13.093775   -312240.95 
      70    36.919286    162294.31    72.152103    72.152104    35.997693          120    16847.456    17224.714   -34163.655   -1089.6757   -2480.6909    -719.1381    72.152103    62.485555    35.997693   -30.494842   -312240.97 
      80    37.113059    162296.94    72.152493    72.152494    35.997888          120    16770.284    17299.631   -34101.073   -1078.8668   -2784.4996   -746.92009    72.152493    62.485893    35.997888   -10.386003   -312241.63 
      90    36.787311    162299.37    72.152852    72.152853    35.998067          120    16832.628    17404.422   -33929.736   -1029.8033   -2932.3765    -622.3255    72.152852    62.486204    35.998067    102.43831      -312241 
     100    36.644897    162301.99    72.153241    72.153242    35.998261          120    16929.078     17436.02   -33621.629   -988.39022   -2848.9203   -563.80075    72.153241    62.486541    35.998261    247.82301   -312240.76 
     110    36.775338    162305.33    72.153736    72.153737    35.998508          120    16978.812    17504.131   -33351.332   -887.94866   -2837.6725   -433.86295    72.153736    62.486969    35.998508    377.20384   -312241.06 
     120    36.944836     162309.8    72.154399    72.154399    35.998839          120     17065.73    17616.525   -33302.621   -814.71408   -2797.5038   -244.19952    72.154399    62.487543    35.998839    459.87817   -312241.21 
     130    37.233546    162315.59    72.155256    72.155257    35.999266          120     16940.15    17701.219   -33389.426    -822.4313   -2694.6349   -67.596316    72.155256    62.488285    35.999266    417.31449   -312241.54 
     140    37.234362    162322.43     72.15627    72.156271    35.999773          120    16662.697    17685.427    -33591.52     -771.885   -2530.4659     37.29404     72.15627    62.489164    35.999773    252.20111   -312241.32 
     150    37.392411    162329.67    72.157343    72.157343    36.000308          120    16315.261    17654.031   -33863.403   -698.87371   -2387.3869   -176.64908    72.157343    62.490093    36.000308    35.296614   -312240.97 
     160    37.700658     162336.5    72.158355    72.158356    36.000813          120    16119.883    17566.279   -34016.369   -707.81138   -2398.1769   -501.93342    72.158355    62.490969    36.000813   -110.06913   -312240.99 
     170    38.161823    162342.47    72.159239    72.159239    36.001253          120    16136.422     17617.91   -33982.514   -834.24098   -2459.1649   -797.60261    72.159239    62.491734    36.001253   -76.060625   -312241.47 
     180    38.364827    162347.72    72.160017    72.160018    36.001642          120    16149.103    17600.643   -33630.958   -781.92175   -2633.6096   -854.48754    72.160017    62.492409    36.001642    39.596167   -312241.03 
     190    38.766408    162352.75    72.160762    72.160762    36.002013          120    16314.467    17614.654   -33342.184   -658.21284   -2722.9817   -779.65138    72.160762    62.493053    36.002013    195.64577   -312240.93 
     200     39.22478    162358.14    72.161561    72.161561    36.002412          120     16444.22     17818.83   -33128.081   -576.83739   -2961.1138   -626.39316    72.161561    62.493745    36.002412    378.32277   -312240.71 
     210    39.490738     162364.5    72.162504    72.162504    36.002882          120    16577.357    17921.602   -33192.387   -644.79225   -3035.9688   -517.57563    72.162504    62.494562    36.002882    435.52407   -312239.94 
     220    39.734685    162371.96    72.163608    72.163608    36.003433          120    16623.021    17845.746   -33494.322   -577.77757   -2996.2677   -248.37162    72.163608    62.495518    36.003433    324.81497   -312239.84 
     230     39.67871    162380.05    72.164807    72.164807    36.004031          120    16634.564    17595.188   -33701.051   -533.74043   -2960.6946   -185.21272    72.164807    62.496556    36.004031    176.23343   -312239.06 
     240    40.312164    162388.21    72.166016    72.166016    36.004635          120    16691.732    17468.531   -34037.585   -618.94535   -3002.0612   -360.76989    72.166016    62.497604    36.004635    40.892833    -312239.6 
     250    40.963493    162395.94    72.167161    72.167161    36.005206          120    16735.718    17400.456   -34323.797   -555.47658   -2914.0743   -505.28268    72.167161    62.498595    36.005206   -62.541081   -312239.55 
     260     41.09673    162402.91    72.168192    72.168193    36.005721          120    16629.686    17435.791   -34284.493   -630.19966   -2756.8515   -558.25688    72.168192    62.499488    36.005721   -73.005376   -312238.95 
     270    41.226248     162409.1    72.169109     72.16911    36.006178          120    16572.655    17470.158   -34178.231   -798.96645    -2578.379   -438.06199    72.169109    62.500282    36.006178   -45.139097   -312238.27 
     280    41.211699    162414.69    72.169937    72.169938    36.006591          120    16651.582    17504.983   -34137.911   -984.02204   -2400.7408   -311.60154    72.169937       62.501    36.006591    6.2180573   -312237.22 
     290    41.483544    162419.82    72.170698    72.170698    36.006971          120    16479.628     17323.21   -34239.533   -1076.7847   -2635.6274   -341.69677    72.170698    62.501658    36.006971   -145.56507   -312236.96 
     300    41.618945    162424.04    72.171322    72.171322    36.007282          120    16360.091    17169.258   -34461.719   -1056.3239    -2767.641   -406.64396    72.171322    62.502199    36.007282   -310.78994   -312236.37 
     310    42.239733    162426.81    72.171732    72.171733    36.007487          120    16244.987    17108.835   -34558.051   -1145.4391   -2596.2821   -229.45024    72.171732    62.502554    36.007487   -401.40994   -312237.02 
     320    42.614108    162427.91    72.171895    72.171896    36.007568          120    16120.494    17217.906    -34631.08   -1221.7424   -2201.0724   -70.530585    72.171895    62.502695    36.007568    -430.8931   -312237.31 
     330     42.74339    162427.34    72.171812    72.171813    36.007527          120    16127.762    17365.106   -34708.957   -1172.3824   -2207.3708   -131.66358    72.171812    62.502623    36.007527   -405.36272    -312237.5 
     340    42.791309    162425.29    72.171508    72.171509    36.007375          120    16112.211    17285.056   -34749.331   -1258.1568   -2283.6452   -226.53889    72.171508     62.50236    36.007375   -450.68804   -312237.15 
     350    42.577754    162421.64    72.170967    72.170968    36.007105          120    15934.355    17053.701   -34886.734   -1292.8063   -2284.7317   -453.55782    72.170967    62.501892    36.007105   -632.89272   -312237.06 
     360    42.084745    162415.92     72.17012     72.17012    36.006682          120    16104.339    16817.029   -34897.943   -1255.4922   -2264.6048   -634.50341     72.17012    62.501158    36.006682   -658.85812   -312236.36 
     370    42.282447    162408.25    72.168984    72.168984    36.006115          120    16461.631    17002.755   -34598.208   -1249.8285   -2280.4341   -818.13842    72.168984    62.500174    36.006115   -377.94065   -312236.76 
     380    42.592023    162399.77    72.167727    72.167728    36.005488          120    16779.282    17522.314   -34120.553   -1106.1481   -2368.9633    -1060.485    72.167727    62.499086    36.005488    60.347714   -312237.82 
     390    43.096157    162392.04    72.166582    72.166583    36.004917          120    16998.506    17928.109   -33992.599    -995.1139   -2405.8791   -962.14436    72.166582    62.498094    36.004917    311.33847   -312238.82 
     400    42.872335    162385.94    72.165679    72.165679    36.004466          120    16890.607    18216.279   -33986.652   -1088.0849   -2343.4739   -800.30905    72.165679    62.497312    36.004466    373.41118      -312239 
     410    42.787616    162381.63     72.16504    72.165041    36.004148          120     16688.62     18511.76   -34005.618   -1090.6075   -2096.4026   -583.46581     72.16504    62.496759    36.004148    398.25411   -312239.47 
     420    42.480705    162379.13    72.164671    72.164671    36.003964          120    16925.822    18611.834   -33978.866   -1171.0317   -1914.4254   -568.41521    72.164671    62.496439    36.003964    519.59655   -312239.54 
     430    42.524717    162378.74    72.164613    72.164613    36.003935          120    17171.021    18693.943   -34026.199   -1287.1181   -2002.1728   -579.34832    72.164613    62.496388    36.003935    612.92158    -312239.9 
     440    42.532393    162380.56    72.164883    72.164883    36.004069          120     17097.26    18664.597   -34358.561   -1201.1005    -2217.427    -736.9356    72.164883    62.496622    36.004069    467.76534   -312240.57 
     450    42.458553    162383.97    72.165388    72.165388    36.004321          120    16880.185    18450.698   -34658.456   -1141.4106   -2383.3229   -1076.8734    72.165388     62.49706    36.004321    224.14253   -312241.14 
     460    42.313885    162387.98    72.165982    72.165982    36.004618          120    16602.677    18298.482    -34818.55   -1142.2551   -2405.9821   -1255.0233    72.165982    62.497574    36.004618    27.536345   -312241.96 
     470    42.280339    162391.88    72.166559     72.16656    36.004906          120    16360.215     18226.26   -34639.874    -1130.884   -2374.4174   -1380.5652    72.166559    62.498074    36.004906   -17.799848   -312243.08 
     480    41.701245     162395.4     72.16708    72.167081    36.005166          120    16188.205    17968.124   -34571.152   -1130.5353   -2484.7579   -1403.4999     72.16708    62.498525    36.005166   -138.27443   -312242.94 
     490    41.093135    162398.24    72.167501    72.167502    36.005376          120    16396.977    17859.885   -34317.631    -1137.022   -2461.1512   -1521.7062    72.167501     62.49889    36.005376   -20.256103   -312242.98 
     500    41.115828    162400.84    72.167887    72.167887    36.005568          120    16658.638    17973.428   -33970.843   -999.27472   -2585.0995    -1502.906    72.167887    62.499224    36.005568    220.40763   -312244.06 
     510    40.737346    162404.09    72.168368    72.168368    36.005808          120    16948.668    18184.289   -33891.409   -907.16574   -2535.3512   -1218.6365    72.168368     62.49964    36.005808    413.84938   -312244.46 
     520    40.479604    162408.57    72.169031    72.169032    36.006139          120    16999.465    18148.929   -34161.532   -883.55345   -2500.0177   -909.36154    72.169031    62.500215    36.006139    328.95422   -312245.33 
     530    39.925654    162413.97    72.169831    72.169831    36.006538          120    16913.249    18019.209   -34330.604   -954.32659   -2624.6258   -827.61135    72.169831    62.500907    36.006538    200.61792   -312245.31 
     540    39.327829    162419.78    72.170692    72.170692    36.006968          120    16879.285    17875.331   -34363.175    -932.8251   -2616.7666   -788.94107    72.170692    62.501653    36.006968    130.48027    -312245.4 
     550    39.459333     162425.7    72.171568    72.171568    36.007405          120    16869.404     17699.43   -34345.647   -968.10464   -2827.8697   -772.14868    72.171568    62.502412    36.007405     74.39589   -312247.01 
     560    39.433484    162431.55    72.172434    72.172435    36.007837          120    16763.893    17643.484   -33989.227   -1010.5794   -3036.0528   -796.37587    72.172434    62.503162    36.007837    139.38342   -312248.02 
     570    39.456553    162437.53     72.17332    72.173321    36.008279          120    16717.383    17700.533       -33912   -1240.9652   -3056.3861   -974.25727     72.17332    62.503929    36.008279    168.63897   -312249.02 
     580    39.347573    162443.73    72.174239     72.17424    36.008737          120    16810.139    17700.021   -34072.811   -1333.2313   -3048.3203   -1061.7388    72.174239    62.504725    36.008737    145.78313   -312249.75 
     590    38.844167    162450.07    72.175178    72.175179    36.009206          120    16717.127    17810.749   -34188.404   -1252.6639    -3053.127   -1258.8016    72.175178    62.505539    36.009206    113.15758   -312249.31 
     600    38.186166    162456.39    72.176114    72.176115    36.009673          120    16545.861    17877.044   -34472.583   -1161.7441   -2937.4237    -1358.337    72.176114    62.506349    36.009673   -16.559422   -312248.94 
     610    38.225293    162462.23    72.176979    72.176979    36.010104          120    16426.993     17721.37   -34650.608   -1000.4081   -2605.9825   -1219.5767    72.176979    62.507098    36.010104   -167.41511   -312249.91 
     620    38.236384    162467.08    72.177697    72.177698    36.010463          120    16266.797    17648.661   -34660.841   -1041.3643   -2412.3472   -1075.3743    72.177697     62.50772    36.010463   -248.46117    -312250.7 
     630     38.41665     162470.7    72.178233    72.178233     36.01073          120    16196.976    17547.265   -34607.016   -1196.9591   -2225.7148   -935.28711    72.178233    62.508184     36.01073   -287.59138   -312251.47 
     640    38.594025    162473.03    72.178578    72.178579    36.010902          120    16231.491    17529.832   -34491.181   -1244.2666   -2284.4746   -898.34219    72.178578    62.508483    36.010902   -243.28589   -312252.37 
     650    38.651228    162474.29    72.178764    72.178765    36.010995          120    16151.421    17579.745   -34432.271   -1132.3717   -2628.6241    -782.2978    72.178764    62.508644    36.010995   -233.70132   -312253.07 
     660    38.519602    162474.57    72.178806    72.178806    36.011016          120    16079.611    17480.038   -34315.711   -1052.4433   -2763.4045   -997.96942    72.178806     62.50868    36.011016   -252.02048   -312253.27 
     670    38.598719    162473.92     72.17871     72.17871    36.010968          120    16195.953    17264.998   -33970.419   -1078.8828   -2798.3772   -1174.9102     72.17871    62.508597    36.010968   -169.82254   -312254.02 
     680    38.356883    162472.65    72.178522    72.178523    36.010874          120    16332.514    17114.594   -33867.149   -1154.2556   -2491.6893   -1287.4651    72.178522    62.508435    36.010874   -140.01361   -312254.04 
     690    38.262267    162470.98    72.178275    72.178275    36.010751          120    16727.562    17060.261    -33879.62   -1238.2978    -2165.309   -1156.4114    72.178275     62.50822    36.010751   -30.599027   -312253.95 
     700    38.461365    162469.24    72.178017    72.178017    36.010622          120      16904.6    17094.479   -34215.767   -1137.9182   -1886.8754    -1097.786    72.178017    62.507997    36.010622   -72.229427   -312254.47 
     710    38.494663    162467.32    72.177732    72.177732     36.01048          120     16827.64    17282.211   -34624.764   -1004.0841   -1799.3265   -1060.8394    72.177732     62.50775     36.01048    -171.6378   -312254.44 
     720    38.678882    162464.86    72.177368    72.177369    36.010299          120    16610.432    17354.679   -34848.291   -881.06887   -1908.0021   -980.57147    72.177368    62.507435    36.010299   -294.39321   -312254.61 
     730     38.72985    162461.41    72.176858    72.176858    36.010044          120    16372.064    17225.519   -35054.818   -897.36928    -2165.748   -906.41888    72.176858    62.506993    36.010044   -485.74491   -312254.71 
     740    38.741278    162456.44    72.176121    72.176122    36.009677          120    16347.233    17249.893   -34941.426   -1076.4015   -2269.5616   -792.92554    72.176121    62.506355    36.009677   -448.10008   -312254.61 
     750    38.386208    162450.12    72.175186    72.175186     36.00921          120    16600.154    17272.265    -34772.56   -1058.5202   -2292.9265   -821.39839    72.175186    62.505545     36.00921   -300.04671   -312254.33 
     760     38.42128    162443.11    72.174147    72.174147    36.008691          120    16994.289     17352.57   -34498.499   -881.68299   -2144.0828   -1050.8244    72.174147    62.504645    36.008691   -50.547076   -312254.42 
     770    39.019084    162436.35    72.173146    72.173147    36.008192          120    17163.051    17822.464    -34262.09   -714.23024   -1747.3181   -1382.7354    72.173146    62.503779    36.008192    241.14151   -312255.38 
     780    39.147645    162430.84    72.172329     72.17233    36.007784          120    17157.293    18081.866   -34312.062   -763.02333   -1510.4923   -1533.9572    72.172329    62.503071    36.007784    309.03247   -312255.75 
     790     38.81266    162426.73    72.171721    72.171721    36.007481          120    16943.547    18089.231    -34630.16   -1024.3765   -1400.4802   -1533.8772    72.171721    62.502544    36.007481    134.20586   -312254.93 
     800    38.972848     162423.4    72.171228    72.171229    36.007235          120    16971.348    18165.305   -34941.102   -1254.5435   -1635.5454   -1457.0206    72.171228    62.502118    36.007235    65.183804   -312255.13 
     810    39.377408    162420.61    72.170815    72.170815    36.007029          120    17292.033    18277.558    -34798.81   -1294.6919    -1761.253   -1525.6668    72.170815     62.50176    36.007029    256.92728   -312255.53 
     820    39.656447    162418.95    72.170569    72.170569    36.006906          120    17656.042    18271.243   -34610.117   -1190.0315   -1947.8474   -1592.4868    72.170569    62.501547    36.006906    439.05604   -312255.35 
     830    39.866376    162418.97    72.170572    72.170572    36.006908          120    17749.408    17986.698   -34372.201    -1129.443   -2161.9038   -1525.3579    72.170572    62.501549    36.006908    454.63516   -312255.67 
     840    39.906884    162420.71    72.170829     72.17083    36.007036          120    17666.338    18078.416   -34140.151   -955.20571   -2349.4207   -1488.4603    72.170829    62.501772    36.007036    534.86757   -312255.23 
     850    40.262241    162424.36     72.17137     72.17137    36.007306          120    17509.791    18229.495   -33891.081   -973.91698   -2279.8943   -1581.1024     72.17137     62.50224    36.007306    616.06819   -312255.41 
     860    40.154111    162429.97      72.1722    72.172201     36.00772          120    17202.587     17977.91   -34106.334   -1188.0252   -2118.9099   -1750.6148      72.1722    62.502959     36.00772    358.05443   -312254.63 
     870    39.997926    162436.57    72.173179    72.173179    36.008209          120    17014.288    17858.383   -34592.926   -1102.8896   -2122.8234   -2132.6468    72.173179    62.503807    36.008209    93.248203   -312253.75 
     880    39.879882    162443.15    72.174152    72.174153    36.008694          120     16910.37    17541.051   -34806.792   -936.87828   -1810.6477   -2191.7688    72.174152     62.50465    36.008694    -118.4568   -312253.05 
     890    39.894881    162448.95    72.175011    72.175012    36.009123          120    16910.897    17432.054   -34760.121   -1029.6653   -1864.3761   -2124.1069    72.175011    62.505394    36.009123   -139.05681   -312252.69 
     900    39.706903    162453.94     72.17575    72.175751    36.009491          120    16930.072    17627.114   -34506.937   -1086.1649   -1931.5391   -2067.4995     72.17575    62.506034    36.009491    16.749767   -312252.05 
     910    40.208156    162458.67    72.176452    72.176453    36.009842          120    17062.086    17754.741   -34388.761   -1079.5683   -1772.3882   -1911.8164    72.176452    62.506642    36.009842    142.68873   -312252.61 
     920    40.469457    162463.62    72.177184    72.177185    36.010207          120    17428.315    17449.579   -34441.683   -1192.8157   -1735.1466   -1686.4305    72.177184    62.507276    36.010207    145.40348   -312253.04 
     930    40.753091    162468.82    72.177954    72.177954    36.010591          120    17346.938    17434.831   -34386.165   -1297.0002   -1801.5508   -1535.9935    72.177954    62.507942    36.010591    131.86816   -312253.66 
     940    41.150247    162474.19     72.17875    72.178751    36.010988          120    17052.295    17570.656   -34379.953   -1251.0812   -1969.3088   -1244.6058     72.17875    62.508632    36.010988    80.999127   -312254.19 
     950    41.042569    162479.51    72.179538    72.179538    36.011381          120    16742.982    17654.537   -34694.842   -1021.1119   -2082.0408   -1248.5415    72.179538    62.509314    36.011381   -99.107812   -312253.56 
     960    41.180574    162484.16    72.180225    72.180226    36.011724          120    16518.564    17629.092   -34925.196   -821.53275    -2249.884   -1542.4795    72.180225     62.50991    36.011724   -259.18002   -312253.77 
     970    41.139729     162487.6    72.180736    72.180737    36.011979          120    16485.185    17692.015    -34965.36   -685.31215   -2252.4813   -1614.3241    72.180736    62.510352    36.011979   -262.71982   -312253.36 
     980    41.150223    162489.87    72.181072    72.181072    36.012146          120    16512.624    17750.804   -34899.447   -685.56586   -2352.4082   -1629.5006    72.181072    62.510642    36.012146   -212.00654   -312253.19 
     990    41.616076    162491.21     72.18127     72.18127    36.012245          120    16526.396    17777.376   -34771.567   -729.09835   -2459.6741   -1480.6846     72.18127    62.510814    36.012245    -155.9315   -312254.13 
    1000    41.880401    162491.86    72.181366    72.181367    36.012293          120    16584.118    17742.061   -34829.141   -610.99564   -2229.7944   -1342.4174    72.181366    62.510897    36.012293   -167.65362   -312254.33 
    1010    41.989265    162491.84    72.181363    72.181363    36.012291          120    16690.446    17627.992   -34833.248   -621.52763   -1923.1749   -1280.1833    72.181363    62.510894    36.012291   -171.60362   -312254.33 
    1020    41.359866    162491.19    72.181267    72.181267    36.012244          120    16631.223    17932.484   -34851.981   -711.31274   -1814.7634   -1229.1435    72.181267    62.510811    36.012244   -96.091453   -312253.34 
    1030    41.610584     162490.2    72.181121    72.181121    36.012171          120    16773.041    18019.148   -34917.811   -812.62041   -1533.7753   -1174.5334    72.181121    62.510685    36.012171   -41.873894   -312254.05 
    1040    41.942841    162489.15    72.180965    72.180966    36.012093          120     16871.59    18153.765   -34731.204   -854.57276   -1388.3674   -1337.3797    72.180965     62.51055    36.012093    98.050416   -312254.98 
    1050    41.901703    162488.48    72.180866    72.180867    36.012044          120    16900.658    18165.405    -34789.33   -803.64378   -1536.2333   -1402.2932    72.180866    62.510465    36.012044     92.24436   -312254.85 
    1060    41.483086    162488.19    72.180823    72.180823    36.012022          120    16995.328    18013.792   -34846.364    -676.2696   -1702.0242   -1314.2425    72.180823    62.510427    36.012022    54.251913   -312254.14 
    1070    41.336049    162488.13    72.180813    72.180814    36.012017          120    17296.684    17609.005   -34745.851   -564.43336   -2071.5345   -1234.7904    72.180813    62.510419    36.012017    53.279043    -312254.6 
    1080    41.112142    162488.22    72.180828    72.180828    36.012025          120     17512.45    17278.488   -34909.005   -493.78091   -2338.0164   -1187.7024    72.180828    62.510431    36.012025   -39.355482   -312254.99 
    1090    40.868858    162488.24     72.18083     72.18083    36.012026          120    17611.367    17262.827   -34727.909    -476.6614   -2470.3817   -1110.3322     72.18083    62.510433    36.012026    48.761645   -312255.25 
    1100    40.658661    162488.43    72.180858    72.180859     36.01204          120    17468.773    17393.513   -34522.723   -600.16374   -2436.7669   -1076.5429    72.180858    62.510457     36.01204    113.18743   -312255.68 
    1110    41.101756    162488.93    72.180932    72.180933    36.012077          120    17073.508    17309.816   -34637.909   -705.59569   -2194.6071    -1065.097    72.180932    62.510522    36.012077   -84.861658   -312257.07 
    1120    40.623777    162489.11     72.18096     72.18096     36.01209          120    16974.818    17252.962   -34758.633   -886.50642   -1753.0468   -1049.3247     72.18096    62.510545     36.01209   -176.95085   -312256.83 
    1130    40.410554    162488.72    72.180902    72.180902    36.012061          120    17283.514    17276.587   -34547.411   -860.82938   -1421.1203   -1054.4468    72.180902    62.510495    36.012061    4.2299951   -312257.01 
    1140    40.179501     162488.3     72.18084     72.18084    36.012031          120    17355.708    17243.501   -34460.168   -687.48696   -1385.7483   -1040.8497     72.18084    62.510441    36.012031    46.346653   -312257.17 
    1150    40.081089    162488.04      72.1808    72.180801    36.012011          120    17215.437     17358.39   -34607.399   -613.67153   -1491.6068   -1030.5415      72.1808    62.510407    36.012011   -11.190424   -312257.43 
    1160    39.989776    162487.77     72.18076    72.180761    36.011991          120    17180.149    17598.903   -34733.136   -573.95209   -1726.6018   -1001.6104     72.18076    62.510373    36.011991    15.305645   -312257.95 
    1170    40.216023    162487.56    72.180729    72.180729    36.011975          120    17128.995     17634.93   -34760.628   -706.70953   -2233.0166   -1036.3467    72.180729    62.510346    36.011975    1.0992472   -312259.06 
    1180    39.934588    162487.34    72.180697    72.180697    36.011959          120    16990.911    17444.453   -34629.622   -705.00658   -2455.1691   -1000.7516    72.180697    62.510318    36.011959   -64.752697   -312259.19 
    1190    39.796999    162486.89     72.18063    72.180631    36.011926          120    16909.581    17431.512   -34708.871   -585.98912   -2385.0706   -953.36944     72.18063     62.51026    36.011926   -122.59257   -312259.77 
    1200    39.905237    162486.05    72.180506    72.180506    36.011864          120    17049.422    17460.433   -34653.144   -487.30769   -2284.2472   -912.25239    72.180506    62.510152    36.011864   -47.762998    -312260.2 
    1210    40.073666    162485.12    72.180368    72.180369    36.011795          120    17206.542    17642.351   -34360.737   -363.20128   -2084.4698   -980.06643    72.180368    62.510033    36.011795    162.71854   -312261.07 
    1220    39.753933     162484.8    72.180321    72.180321    36.011772          120    17179.716    17633.036   -34070.439   -329.15299    -1832.188   -1002.6242    72.180321    62.509992    36.011772     247.4378   -312261.35 
    1230    39.588392     162485.4     72.18041     72.18041    36.011816          120    17044.163    17588.895   -33911.584   -307.29708   -1710.8647   -1012.1564     72.18041    62.510069    36.011816    240.49116   -312261.77 
    1240    38.973233    162486.87    72.180627    72.180628    36.011924          120    17056.874    17791.473   -34174.055   -372.32574   -1743.2521   -1197.9074    72.180627    62.510257    36.011924    224.76411   -312261.17 
    1250    38.432017    162489.08    72.180955    72.180956    36.012088          120    17179.331    17811.661   -34464.959    -499.6986   -1847.8068   -1450.3803    72.180955    62.510541    36.012088    175.34442    -312260.4 
    1260    38.472674    162491.84    72.181364    72.181364    36.012292          120    17259.469    17579.166   -34405.524    -479.3956   -1878.9441   -1638.4287    72.181364    62.510895    36.012292    144.37042   -312261.08 
    1270    38.329621    162495.03    72.181835    72.181836    36.012527          120    17461.102    17373.998   -34352.882   -455.04031   -1859.8988   -1445.0037    72.181835    62.511304    36.012527     160.7393   -312261.04 
    1280    38.148256    162498.56    72.182358    72.182358    36.012788          120    17596.996    16942.458    -34651.05    -556.6945   -1854.7625   -1081.3147    72.182358    62.511756    36.012788   -37.198707   -312261.39 
    1290    38.326272    162501.76    72.182833    72.182833    36.013025          120    17479.986    16727.216    -34885.75   -819.99798   -2022.7096   -866.25131    72.182833    62.512167    36.013025   -226.18244   -312261.98 
    1300    38.886722       162504    72.183164    72.183164     36.01319          120    17327.174    16927.952   -34965.822   -738.19401   -2125.1355   -815.78631    72.183164    62.512454     36.01319   -236.89893   -312263.31 
    1310    38.616195    162505.29    72.183354    72.183355    36.013285          120    17251.736    17336.359    -34784.32   -528.68122   -2148.3345   -678.10688    72.183354    62.512619    36.013285   -65.408314   -312262.87 
    1320    38.704371    162506.23    72.183494    72.183495    36.013355          120    17300.297    17555.464   -34731.855   -406.73224   -2203.2442   -722.63826    72.183494     62.51274    36.013355    41.302252   -312263.25 
    1330    38.758439    162507.25    72.183645    72.183646     36.01343          120    17257.869    17650.169    -34730.51   -389.47773   -2339.9751    -689.2084    72.183645    62.512871     36.01343    59.175936   -312263.19 
    1340    38.979561    162508.44    72.183821    72.183822    36.013518          120    17228.665    17616.807   -34688.321   -489.23881   -2649.6193    -872.3414    72.183821    62.513024    36.013518    52.383393   -312263.58 
    1350    38.971609    162509.75    72.184016    72.184016    36.013615          120    17344.253    17530.287   -34786.004    -596.4906   -2616.9331   -1122.4116    72.184016    62.513192    36.013615    29.511935   -312263.44 
    1360    39.231894    162511.11    72.184217    72.184217    36.013715          120    17382.485    17518.594   -34793.821   -563.94113    -2397.128   -1213.4171    72.184217    62.513366    36.013715     35.75269   -312263.91 
    1370    39.390474    162512.53    72.184427    72.184427     36.01382          120    17276.785    17628.955   -34728.537   -536.80093   -2214.6761   -1309.8033    72.184427    62.513548     36.01382    59.067817   -312264.11 
    1380    39.203802    162514.07    72.184655    72.184656    36.013934          120    17063.037    17793.376   -34782.072   -656.97321   -2290.6822   -1135.1114    72.184655    62.513746    36.013934    24.780304   -312263.63 
    1390    39.154149     162515.6    72.184882    72.184882    36.014047          120    16947.018    17611.434    -34762.47    -758.6522   -2155.6032   -1033.5055    72.184882    62.513942    36.014047   -68.006337   -312263.24 
    1400    39.287058    162516.79    72.185057    72.185058    36.014135          120    16871.113    17457.133   -34817.378    -826.5359    -2146.895   -1001.0606    72.185057    62.514094    36.014135   -163.04408   -312263.58 
    1410    39.366348    162517.33    72.185138    72.185138    36.014175          120    16981.406    17323.314   -34763.599   -919.40969   -2260.4657   -1041.2293    72.185138    62.514164    36.014175   -152.95978   -312263.53 
    1420    39.192702    162517.28    72.185131    72.185131    36.014171          120    17067.698     17221.01    -34549.79   -878.11644   -2223.3477   -1121.9932    72.185131    62.514158    36.014171   -87.027341   -312262.93 
    1430    39.138498    162516.91    72.185076    72.185076    36.014144          120    17158.763    17367.567    -34575.02    -833.3057   -2158.7975   -1124.0631    72.185076     62.51411    36.014144   -16.229742    -312262.4 
    1440    39.393513    162516.47    72.185011    72.185011    36.014112          120    17269.583    17433.501   -34652.575   -674.48004   -2184.7524   -1234.5148    72.185011    62.514054    36.014112    16.835947   -312262.83 
    1450    39.630851    162516.09    72.184954    72.184955    36.014084          120    17245.347     17536.91   -34790.414   -560.45287   -2338.9716   -1097.8494    72.184954    62.514005    36.014084   -2.7189969   -312263.17 
    1460    39.813645    162515.71    72.184898    72.184898    36.014055          120    17243.612    17521.549   -34931.337   -413.55104   -2634.2051   -812.36936    72.184898    62.513956    36.014055   -55.392149   -312263.14 
    1470    39.916665    162515.13    72.184811    72.184812    36.014012          120    17215.267    17431.212   -35018.417   -343.72499     -2702.05   -733.43611    72.184811    62.513881    36.014012   -123.97929   -312262.72 
    1480    39.915208    162514.18    72.184671    72.184671    36.013942          120    17340.313    17427.498   -34691.726    -469.4364   -2432.4739   -724.66604    72.184671    62.513759    36.013942    25.361693   -312262.75 
    1490    39.811188    162513.42    72.184559    72.184559    36.013886          120    17614.084     17380.22   -34111.321   -623.75752   -2241.5963    -825.5137    72.184559    62.513662    36.013886    294.32773   -312261.93 
    1500    40.070081    162513.75    72.184607    72.184608     36.01391          120    17635.796     17401.92   -33793.297    -825.4078   -2304.3305   -843.42932    72.184607    62.513704     36.01391    414.80638    -312262.2 
    1510    40.275449    162515.61    72.184882    72.184883    36.014047          120    17666.663    17530.686    -33837.93   -885.88626   -2277.9477   -729.30191    72.184882    62.513942    36.014047    453.13977   -312261.81 
    1520    40.812909    162519.04     72.18539    72.185391    36.014301          120    17647.574    17680.742   -34098.953   -798.41282   -2180.9517   -600.36417     72.18539    62.514382    36.014301    409.78771   -312262.55 
    1530    40.602386    162523.82    72.186099    72.186099    36.014654          120    17456.881    17804.372   -34213.516    -614.6959   -2371.0487   -658.71201    72.186099    62.514996    36.014654    349.24581   -312262.08 
    1540    40.581332    162529.69    72.186967    72.186967    36.015087          120    17345.771    17746.752   -34273.019   -575.14232   -2488.0668   -838.76469    72.186967    62.515748    36.015087    273.16794   -312261.79 
    1550    40.880702    162536.25    72.187938    72.187939    36.015572          120    17402.855    17551.282   -34556.073   -685.30567   -2642.8576   -931.90959    72.187938    62.516589    36.015572     132.6881   -312262.07 
    1560    40.556581    162543.01    72.188939    72.188939    36.016071          120    17314.131    17542.994   -34696.473   -791.06234   -2692.7576   -1112.6355    72.188939    62.517455    36.016071    53.550737   -312261.55 
    1570    40.890105    162549.59    72.189913    72.189914    36.016557          120    16991.743    17354.924   -34642.902   -722.20396   -2711.0978   -1119.9496    72.189913    62.518299    36.016557   -98.745111   -312262.18 
    1580    40.680501     162555.5    72.190789    72.190789    36.016994          120    16753.036    17238.486    -34523.14   -544.88338   -2648.3175   -951.80779    72.190789    62.519058    36.016994   -177.20599   -312261.62 
    1590    40.685356    162560.47    72.191524    72.191525    36.017361          120     16829.78    17140.046   -34530.899   -374.35838   -2648.5355   -1054.4375    72.191524    62.519695    36.017361   -187.02444   -312261.34 
    1600    40.676614    162564.47    72.192115    72.192116    36.017656          120    16818.767    16991.694   -34531.432   -173.39857   -2744.5171   -1221.7307    72.192115    62.520207    36.017656   -240.32368   -312261.01 
    1610    40.649252    162567.36    72.192544    72.192545     36.01787          120    16978.568    16865.703   -34638.207    -83.15683   -2562.2883   -1279.6117    72.192544    62.520578     36.01787   -264.64539   -312260.59 
    1620    41.085395    162569.13    72.192806    72.192807    36.018001          120    17187.028    16832.549   -34694.434   -187.43779   -2350.8008   -1354.6588    72.192806    62.520805    36.018001   -224.95228   -312261.42 
    1630    41.170575    162569.98    72.192932    72.192932    36.018063          120    17182.195    16973.958   -34676.383   -352.09659   -2276.2918    -1385.256    72.192932    62.520913    36.018063   -173.41005   -312261.91 
    1640    41.041469    162570.06    72.192943    72.192944    36.018069          120    17111.654     16943.09   -35012.201   -381.03881   -2403.5493   -1383.8353    72.192943    62.520924    36.018069   -319.15229   -312261.78 
    1650    41.206732    162568.91    72.192773    72.192774    36.017984          120    16982.296     16548.71   -35119.877   -470.79075   -2565.6127   -1326.2981    72.192773    62.520776    36.017984   -529.62361    -312262.4 
    1660    41.157048    162565.85     72.19232    72.192321    36.017758          120    16768.149    16490.199   -35130.088   -523.53069   -2786.6789   -1243.2146     72.19232    62.520384    36.017758   -623.91335    -312262.2 
    1670    41.088051     162560.7    72.191559    72.191559    36.017378          120    17103.538    16779.902   -34919.812   -471.94723   -2774.3493   -1081.8036    72.191559    62.519724    36.017378   -345.45726   -312262.42 
    1680    40.718695    162554.56    72.190649    72.190649    36.016924          120    17435.622    17150.539   -34432.074    -674.7984   -2756.6783   -1081.8787    72.190649    62.518936    36.016924    51.362367   -312261.68 
    1690    40.698056    162548.82    72.189799      72.1898    36.016501          120     17485.95    17412.022   -34222.472   -692.30536   -2810.2864   -1225.9648    72.189799    62.518201    36.016501     225.1667   -312261.88 
    1700     40.58856    162544.19    72.189114    72.189114    36.016159          120    17549.578    17565.968   -34242.064    -606.9902   -2838.4367    -1305.534    72.189114    62.517607    36.016159    291.16096   -312261.96 
    1710    40.347583    162540.79     72.18861    72.188611    36.015907          120    17412.058    17561.114   -34622.889   -586.37348   -2844.6535   -1277.1226     72.18861    62.517171    36.015907     116.7612   -312261.51 
    1720    40.383505    162538.04    72.188203    72.188203    36.015704          120     17325.48    17621.798   -34822.277   -612.86791   -2703.6762   -1435.3258    72.188203    62.516818    36.015704    41.666947   -312261.55 
    1730     40.73779    162535.59     72.18784    72.187841    36.015523          120    17352.074    17752.658   -34973.166   -546.59158   -2647.5358   -1384.1074     72.18784    62.516504    36.015523    43.855163   -312262.39 
    1740    40.520344    162533.46    72.187526    72.187526    36.015366          120    17485.191    17840.266   -34771.515   -523.66843   -2697.5514    -1260.174    72.187526    62.516232    36.015366    184.64733   -312262.42 
    1750    40.447407    162532.11    72.187326    72.187326    36.015267          120    17590.486    17780.291   -34521.696    -525.0509   -2963.2531   -1249.9262    72.187326    62.516059    36.015267    283.02668   -312263.19 
    1760    40.714732    162531.85    72.187286    72.187287    36.015247          120    17444.713    17537.599   -34325.645   -485.26255   -3246.9889   -1160.3399    72.187286    62.516024    36.015247    218.88894   -312264.02 
    1770    40.799102     162532.4    72.187369     72.18737    36.015288          120    17183.917    17384.773   -34233.929   -438.44277   -3068.3123   -1068.8994    72.187369    62.516096    36.015288    111.58711   -312264.72 
    1780     40.89522    162533.38    72.187513    72.187513     36.01536          120    17192.048    17476.086   -34520.457    -419.1144   -2540.6978    -1037.493    72.187513    62.516221     36.01536    49.225968   -312265.42 
    1790    40.585036    162534.43    72.187669    72.187669    36.015438          120    17266.291    17195.402   -34882.325   -389.33025   -2383.2004    -979.5787    72.187669    62.516356    36.015438   -140.21078    -312265.5 
    1800    40.160206    162534.88    72.187735    72.187736    36.015471          120    17077.676    16786.105   -35030.432   -482.90406   -2670.1704   -919.30001    72.187735    62.516413    36.015471   -388.88364    -312265.1 
    1810     39.92827    162533.92    72.187594    72.187595    36.015401          120     17107.03    16812.652   -35122.118   -498.38892   -2895.7733   -1075.2328    72.187594    62.516291    36.015401   -400.81167   -312264.99 
    1820    39.667237    162531.55    72.187243    72.187244    36.015225          120    17392.064     16850.22   -34992.623   -403.55124    -2918.255    -977.6919    72.187243    62.515987    36.015225   -250.11274      -312265 
    1830    39.669024    162528.39    72.186775    72.186776    36.014992          120    17666.393    17074.967   -34614.256   -334.30838    -2816.719   -985.94245    72.186775    62.515582    36.014992    42.367766   -312265.42 
    1840    39.519633    162525.57    72.186357    72.186358    36.014783          120      17840.7    17432.202   -34076.992   -453.35324   -2690.0127   -1033.6471    72.186357     62.51522    36.014783    398.63677   -312265.47 
    1850     39.55263    162524.33    72.186174    72.186174    36.014692          120    17893.512    17661.415   -33774.506   -693.23452   -2675.6037   -973.17645    72.186174    62.515061    36.014692    593.47352   -312265.83 
    1860    39.134298    162525.33    72.186322    72.186322    36.014766          120    17823.424    17747.261   -33849.693   -875.37397   -2606.0076   -1002.8588    72.186322    62.515189    36.014766      573.664   -312265.44 
    1870    39.584337    162528.32    72.186764    72.186765    36.014986          120    17436.684     17369.46    -34116.93    -931.8431   -2631.4837   -980.46308    72.186764    62.515572    36.014986    229.73821   -312266.63 
    1880    39.452845    162532.08    72.187321    72.187322    36.015264          120    17364.268    16956.373   -34275.802   -772.75318   -2724.0585   -940.67233    72.187321    62.516055    36.015264    14.946433   -312266.71 
    1890    39.426217    162535.76    72.187867    72.187867    36.015536          120    17433.902    16825.971   -34458.006    -423.0529   -2648.4277   -968.34623    72.187867    62.516527    36.015536   -66.044426   -312266.97 
    1900     40.05865    162538.95    72.188338    72.188338    36.015771          120    17226.214    16762.679   -34887.752   -183.24251   -2690.4311   -938.05116    72.188338    62.516935    36.015771   -299.61997   -312268.63 
    1910    39.540295    162540.93    72.188631    72.188632    36.015918          120    16969.572    16877.732   -34699.406    -100.8987   -2904.1704   -942.15099    72.188631    62.517189    36.015918    -284.0338   -312267.98 
    1920    39.087411     162541.8     72.18876     72.18876    36.015982          120    17066.584    16981.127   -34389.075   -270.77888   -2808.5232   -1032.2597     72.18876    62.517301    36.015982   -113.78791   -312267.46 
    1930    39.032018    162542.18    72.188816    72.188817     36.01601          120    17137.306    17185.686   -34236.889   -433.67476   -2840.8297   -1104.8426    72.188816    62.517349     36.01601    28.701062   -312267.76 
    1940    39.104302    162542.66    72.188888    72.188888    36.016046          120    17267.027    17422.592    -34121.64   -515.47578   -2741.9431   -1087.4503    72.188888    62.517411    36.016046    189.32626   -312268.52 
    1950    39.414655    162543.79    72.189054    72.189055    36.016129          120    17320.832    17498.956   -34225.869   -479.49774   -2725.3121   -961.34106    72.189054    62.517555    36.016129    197.97295   -312269.22 
    1960    39.383823    162545.59    72.189321    72.189321    36.016262          120    17104.016    17625.717   -34414.286    -298.6261   -2849.6234   -1081.0043    72.189321    62.517786    36.016262     105.1488   -312269.21 
    1970    39.217055    162547.64    72.189625    72.189626    36.016414          120    16869.792    17666.641   -34848.659   -233.29278   -2820.9931    -1178.825    72.189625     62.51805    36.016414   -104.07504   -312269.17 
    1980    39.091998    162549.27    72.189867    72.189867    36.016534          120     16901.59    17624.994   -34930.263   -286.18818   -2871.8343   -1166.6429    72.189867    62.518259    36.016534   -134.55955   -312268.92 
    1990    39.742098    162550.38    72.190031    72.190031    36.016616          120    17193.374    17644.859   -34715.753   -320.01444   -2906.8332   -1068.4168    72.190031    62.518401    36.016616    40.826809   -312270.07 
    2000    39.702762    162551.66     72.19022     72.19022     36.01671          120    17462.772    17854.029   -34270.814   -202.34261   -2981.0483   -897.73345     72.19022    62.518565     36.01671    348.66242    -312269.6 
    2010    39.646447    162554.12    72.190584    72.190584    36.016892          120    17617.189     17976.64   -34195.196    -184.0969   -3056.2269   -880.74167    72.190584     62.51888    36.016892    466.21075   -312269.29 
    2020     39.32809    162558.18    72.191185    72.191185    36.017192          120    17579.713    17950.683   -34180.162   -178.91275   -3056.5112   -762.70797    72.191185    62.519401    36.017192    450.07827   -312268.71 
    2030    39.723369    162563.72    72.192005    72.192005    36.017601          120    17292.434    17965.898   -34301.746   -47.224192   -3177.0568    -476.2963    72.192005    62.520111    36.017601    318.86195   -312269.71 
    2040    39.868777    162570.18    72.192961    72.192961    36.018078          120    17338.436    17689.955   -34682.248   -2.7200247   -3056.7631   -436.14876    72.192961    62.520939    36.018078    115.38086   -312269.91 
    2050    39.700363    162576.79     72.19394    72.193941    36.018566          120    17366.937    17484.033   -34902.396   -74.754598    -3073.185   -699.68247     72.19394    62.521787    36.018566   -17.141884    -312269.5 
    2060    40.107854    162583.07    72.194869    72.194869     36.01903          120    17353.248     17451.26   -34929.307   -123.52395   -3049.3336   -872.67443    72.194869    62.522591     36.01903   -41.599663   -312270.44 
    2070    40.056703    162588.92    72.195735    72.195735    36.019462          120    17258.089    17526.176   -34790.501   -235.71318   -3054.8072   -857.41802    72.195735    62.523341    36.019462    -2.078512   -312270.41 
    2080    39.931428    162594.49     72.19656     72.19656    36.019874          120    17252.447    17290.231   -34493.434   -397.28873   -2986.9787   -623.58698     72.19656    62.524055    36.019874    16.414511   -312270.21 
    2090    39.924657    162599.87    72.197356    72.197356    36.020271          120    17313.016    17146.202   -34327.249   -449.60698   -2631.3473   -663.89394    72.197356    62.524745    36.020271    43.990082   -312270.07 
    2100    40.132014     162605.2    72.198145    72.198145    36.020664          120    17343.968    17343.474   -34321.634   -467.95709   -2529.2688   -851.84776    72.198145    62.525428    36.020664    121.93564   -312270.52 
    2110    39.968516    162610.64    72.198949     72.19895    36.021066          120    17228.974    17140.483   -34666.376   -448.93229   -2849.0489   -1007.5585    72.198949    62.526125    36.021066   -98.972945   -312270.32 
    2120    39.713214    162615.43    72.199658    72.199659    36.021419          120    16812.925    16887.841   -34942.994   -464.35011   -3183.6455   -1064.4326    72.199658    62.526739    36.021419   -414.07601   -312269.49 
    2130    39.920921    162618.48     72.20011    72.200111    36.021645          120    16721.277    16876.267   -35254.374   -215.32978   -3336.3335    -969.6616     72.20011     62.52713    36.021645   -552.27646   -312269.72 
    2140    40.048928    162619.39    72.200245    72.200245    36.021712          120     16877.43    17042.931   -35233.194   -120.81122   -3356.3339   -969.47678    72.200245    62.527247    36.021712   -437.61112   -312270.12 
    2150    40.145282     162618.6    72.200127    72.200128    36.021654          120    17067.084     17042.25   -35096.831   -137.87924   -3235.0562   -997.16306    72.200127    62.527145    36.021654   -329.16543   -312270.19 
    2160    40.494562    162616.51    72.199818    72.199819    36.021499          120    16939.187    16940.903   -35259.526   -112.43744   -3261.4253   -1113.1681    72.199818    62.526877    36.021499   -459.81206    -312270.7 
    2170    40.439842    162612.77    72.199266    72.199266    36.021224          120    16774.264    16891.723   -35349.689    -304.5146   -3163.2477   -1167.3977    72.199266    62.526399    36.021224   -561.23413   -312270.67 
    2180    39.987602    162607.14    72.198432    72.198433    36.020808          120    16776.885    17028.653   -35167.519   -246.38736   -3199.8778    -1153.274    72.198432    62.525677    36.020808   -453.99365   -312269.68 
    2190    39.846226    162600.08    72.197387    72.197388    36.020286          120    17108.777    17208.431   -34928.778   -181.34054   -2990.0537    -1328.709    72.197387    62.524772    36.020286   -203.85663   -312269.63 
    2200    40.004666    162592.59    72.196278    72.196279    36.019733          120    17400.955    17292.606   -34468.641   -159.54982   -2994.2093    -1468.229    72.196278    62.523812    36.019733    74.973308      -312270 
    2210    39.911653    162585.65    72.195252    72.195252    36.019221          120    17358.614    17317.001   -34194.485   -162.57377   -2977.6908   -1522.5453    72.195252    62.522923    36.019221    160.37641   -312270.25 
    2220    39.724259    162579.59    72.194354    72.194354    36.018773          120    17482.498    17225.477   -34438.722    14.594835    -2945.143   -1471.4451    72.194354    62.522145    36.018773    89.751071   -312270.13 
    2230    39.640166    162574.13    72.193546    72.193546     36.01837          120    17337.108    17160.951   -34520.196   -242.09004   -3102.8769   -1526.7831    72.193546    62.521445     36.01837   -7.3790679      -312270 
    2240      39.8974    162568.87    72.192767    72.192768    36.017981          120     17270.17    16950.135   -34577.176   -394.96936   -3129.0605   -1576.2236    72.192767    62.520771    36.017981   -118.95684   -312270.41 
    2250    39.701289    162563.47    72.191967    72.191968    36.017582          120    17484.989    16960.278   -34501.859   -485.49261   -3249.8873   -1610.6208    72.191967    62.520078    36.017582   -18.864242   -312270.04 
    2260    39.632804    162558.27    72.191198    72.191198    36.017198          120    17855.658    17097.815   -34477.408   -498.24259   -3304.1254   -1542.8729    72.191198    62.519412    36.017198    158.68846   -312269.89 
[...]
   99200    39.990477    162668.46    72.207506    72.207507    36.025335          120    17083.616    17168.719   -34488.795   -648.52005   -2287.3968   -576.84877    72.207506    62.533535    36.025335   -78.819827   -312276.36 
   99210    40.265218    162672.72    72.208137    72.208137    36.025649          120    16983.021    17091.774   -34774.537   -445.06511   -2292.3915    -497.5499    72.208137    62.534081    36.025649   -233.24748   -312276.83 
   99220    39.945753    162676.12    72.208639     72.20864      36.0259          120    17058.951     16809.65   -34845.797   -421.56163    -2409.228   -744.56968    72.208639    62.534517      36.0259   -325.73212   -312276.39 
   99230     40.17606    162678.17    72.208942    72.208943    36.026051          120    16657.851    16915.529   -35286.302   -320.34068   -2443.3754   -837.54736    72.208942    62.534779    36.026051    -570.9741   -312276.77 
   99240    40.055192    162678.12    72.208935    72.208936    36.026048          120    16629.034    17195.644   -35374.536   -248.36166   -2495.5397   -1029.1894    72.208935    62.534773    36.026048   -516.61937   -312276.42 
   99250    40.223731    162676.12     72.20864     72.20864      36.0259          120    16825.914    17450.657   -35223.701   -315.23518   -2323.6751   -703.52208     72.20864    62.534517      36.0259   -315.70965    -312276.7 
   99260     40.00167    162672.86    72.208158    72.208158     36.02566          120    16683.438    17589.104   -34905.011   -367.15834   -2089.0576   -700.49072    72.208158    62.534099     36.02566   -210.82304   -312276.37 
   99270    39.766133    162668.72    72.207545    72.207546    36.025354          120    16744.389    17398.016   -34862.289   -479.35562   -2231.0333   -856.70213    72.207545    62.533569    36.025354   -239.96129   -312276.22 
   99280    40.051351    162663.73    72.206806    72.206807    36.024986          120    17143.525    17469.374   -34855.354    -597.1495   -2155.8227    -983.4446    72.206806    62.532929    36.024986   -80.818536   -312276.76 
   99290    39.814536    162658.45    72.206026    72.206026    36.024596          120    17482.484    17589.499   -34576.649   -400.35862   -2391.5011   -940.47927    72.206026    62.532253    36.024596     165.1116   -312276.32 
   99300    40.051134    162653.76    72.205332    72.205332     36.02425          120    17484.684    17498.759   -34290.774   -346.20362   -2488.7874   -741.08796    72.205332    62.531652     36.02425    230.88978   -312276.85 
   99310    40.106328    162649.95    72.204768    72.204769    36.023969          120     17104.24    17561.917   -34033.671   -478.88731   -2528.7351   -809.59649    72.204768    62.531164    36.023969     210.8285   -312276.87 
   99320    40.418616    162646.93    72.204321    72.204321    36.023746          120    17063.527    17660.231   -34500.243   -364.18822   -2399.1993    -916.7232    72.204321    62.530777    36.023746       74.505    -312277.4 
   99330    39.737254     162644.2    72.203916    72.203917    36.023544          120    17360.195    17305.614    -34946.14   -461.67683   -2635.2654   -833.63521    72.203916    62.530426    36.023544   -93.443725   -312275.99 
   99340    39.844784    162641.14    72.203464    72.203464    36.023318          120    17358.269     17117.39   -34885.117   -331.31163   -2548.3516   -769.99156    72.203464    62.530035    36.023318     -136.486   -312276.09 
   99350    40.699621    162637.64    72.202945    72.202946    36.023059          120    17578.502    17217.776    -34630.78   -251.95853   -2455.0097   -751.30274    72.202945    62.529586    36.023059    55.166087   -312277.97 
   99360    39.939052    162634.35    72.202459     72.20246    36.022817          120    17861.381    17336.261   -34513.665   -437.56584   -2407.3127    -847.8664    72.202459    62.529165    36.022817    227.99227   -312276.13 
   99370    39.901559    162631.88    72.202094    72.202094    36.022634          120    17555.054    17876.141   -34654.316   -464.62796   -2279.2696   -929.18094    72.202094    62.528848    36.022634    258.95967   -312276.07 
   99380    39.927994    162630.45    72.201882    72.201882    36.022529          120    17475.128    18080.986   -34504.392    -579.1849   -2679.7262   -816.21966    72.201882    62.528664    36.022529    350.57405   -312276.42 
   99390    40.340861    162630.27    72.201855    72.201856    36.022515          120    17334.313    17873.553   -34658.974   -608.34531   -2732.4771   -589.03329    72.201855    62.528641    36.022515    182.96396   -312277.19 
   99400    39.942909    162630.85    72.201941    72.201942    36.022558          120    17577.528    17555.768   -34827.009   -465.35742   -2460.2329   -281.73688    72.201941    62.528716    36.022558    102.09544   -312276.47 
   99410    40.155181    162631.79    72.202079     72.20208    36.022627          120    17390.839    17296.573     -34752.3    -427.3014   -2318.5048    -221.7795    72.202079    62.528836    36.022627   -21.629271   -312277.05 
   99420    39.679972     162632.7    72.202215    72.202216    36.022695          120    17466.627     17081.46   -34342.707   -168.89721   -2330.0127   -319.30302    72.202215    62.528953    36.022695    68.460301   -312276.27 
   99430    39.793808    162633.92    72.202395    72.202396    36.022785          120    17608.532    17294.908   -34074.478    -260.3323   -2166.8726   -387.58403    72.202395    62.529109    36.022785    276.32077   -312276.33 
   99440    40.318825    162636.09    72.202717    72.202718    36.022945          120    17333.299    17628.309    -34358.34   -199.50239    -2415.085   -320.74221    72.202717    62.529388    36.022945    201.08932    -312277.3 
   99450    39.970346    162638.97    72.203143    72.203143    36.023158          120    17347.818    17189.914   -34651.977    -208.7489   -2527.0869   -457.27663    72.203143    62.529757    36.023158   -38.081811   -312276.79 
   99460    40.182869    162641.76    72.203555    72.203556    36.023364          120    17502.177    16906.064   -34671.062   -474.94591   -2753.1716    -571.0951    72.203555    62.530114    36.023364   -87.607109   -312277.14 
   99470    40.121582    162644.19    72.203916    72.203916    36.023543          120    17311.433    17231.865   -34829.712   -518.39669   -2729.7676   -667.02506    72.203916    62.530426    36.023543   -95.471378   -312277.02 
   99480    39.682247    162646.31    72.204229    72.204229      36.0237          120    17576.204     17255.52   -34771.236   -477.66878   -2649.8981   -644.59414    72.204229    62.530697      36.0237    20.162443   -312276.18 
   99490    40.023997    162648.42    72.204541    72.204541    36.023855          120    17447.005    17103.275   -34631.044   -492.57255   -2518.3644   -640.05931    72.204541    62.530967    36.023855   -26.921526   -312276.69 
   99500    39.658323    162650.42    72.204837    72.204837    36.024003          120    17040.375    17428.343   -34626.273   -346.99759   -2331.1399   -599.68871    72.204837    62.531224    36.024003   -52.518334   -312276.18 
   99510    40.062438     162652.3    72.205115    72.205116    36.024142          120     17418.08    17330.447   -34337.712   -375.02403   -2194.4905   -709.66767    72.205115    62.531465    36.024142    136.93828   -312276.58 
   99520    40.195606    162654.63     72.20546     72.20546    36.024314          120    17322.978      17468.7   -34335.096   -481.60577   -2064.7886   -774.73033     72.20546    62.531763    36.024314    152.19382   -312276.93 
   99530    40.281867    162657.52    72.205888    72.205889    36.024528          120    17291.048    17521.358   -34418.347   -451.05668   -1937.9913   -563.84937    72.205888    62.532134    36.024528    131.35308    -312277.4 
   99540    39.907046    162660.92    72.206391    72.206391    36.024778          120    17564.106    17062.998   -34303.886   -376.76685   -2083.3254   -610.74002    72.206391    62.532569    36.024778    107.73922   -312276.25 
   99550    39.794964     162664.7     72.20695    72.206951    36.025057          120    17506.193    17082.533   -34459.473   -279.95973   -2303.9347   -446.46518     72.20695    62.533054    36.025057    43.084394    -312276.2 
   99560    39.873085    162668.67    72.207537    72.207537     36.02535          120     17370.86    17239.028   -34547.211   -452.56185   -2370.0809    -736.1582    72.207537    62.533562     36.02535    20.892351   -312276.45 
   99570    40.071539    162672.67    72.208129    72.208129    36.025645          120    17303.746    17088.571   -34628.402   -488.96707   -2522.5448   -802.09109    72.208129    62.534074    36.025645   -78.695187   -312277.14 
   99580    39.745051    162676.38    72.208678    72.208679    36.025919          120    17241.501    17363.095   -34829.946   -215.11222   -2318.9442   -676.41719    72.208678     62.53455    36.025919   -75.116994   -312276.48 
   99590    39.652453     162679.8    72.209185    72.209185    36.026172          120    17451.358    17305.259   -34940.172   -360.85862   -2398.6315   -753.27755    72.209185    62.534989    36.026172    -61.18519    -312276.3 
   99600    40.295999    162682.85    72.209636    72.209637    36.026397          120    17340.204    16835.555   -35171.783   -460.94202   -2669.8781   -521.62144    72.209636     62.53538    36.026397   -332.00757   -312277.29 
   99610    39.883713    162684.71     72.20991     72.20991    36.026534          120    17001.353    17022.363   -35108.514   -437.24372   -2417.8322   -431.35943     72.20991    62.535617    36.026534   -361.59938   -312276.66 
   99620    39.607764    162685.16    72.209977    72.209977    36.026567          120     16728.65    17276.975   -35131.461   -424.99394    -2244.277   -655.19119    72.209977    62.535675    36.026567   -375.27869   -312276.11 
   99630    40.125986    162684.14    72.209827    72.209827    36.026493          120    16715.504    17246.233   -35231.182   -329.65741   -2188.1794   -893.61419    72.209827    62.535545    36.026493   -423.14811   -312277.07 
   99640    39.487539    162681.54    72.209442    72.209443    36.026301          120    16787.393    17410.475   -35204.243   -335.70066   -2271.6049   -857.40157    72.209442    62.535212    36.026301   -335.45852   -312275.87 
   99650    40.120354    162677.65    72.208865    72.208866    36.026013          120    16976.821    17319.515   -34938.196    -466.9823   -2221.7527   -773.18781    72.208865    62.534712    36.026013   -213.95339   -312277.16 
   99660     40.17745    162672.92    72.208167    72.208167    36.025664          120    17349.348     17088.38   -34656.111   -754.06447   -2408.2371   -531.75378    72.208167    62.534107    36.025664   -72.794365   -312277.18 
   99670    39.585936    162667.91    72.207425    72.207425    36.025294          120    17499.147    17105.583   -34501.797   -668.19897   -2512.3484   -486.16242    72.207425    62.533465    36.025294    34.311171   -312276.25 
   99680    39.999224    162663.07    72.206709    72.206709    36.024937          120    17442.765    17406.408   -34285.728   -551.37534   -2388.2282    -733.6658    72.206709    62.532845    36.024937    187.81512   -312276.83 
   99690    39.770286    162658.92    72.206094    72.206095     36.02463          120    17437.119    17549.244   -34382.482   -440.52314   -2676.8072    -516.2305    72.206094    62.532312     36.02463    201.29382   -312276.66 
   99700    40.314215    162655.49    72.205587    72.205588    36.024378          120     17342.25    17173.196   -34422.056   -532.06191   -2303.4351   -441.55118    72.205587    62.531874    36.024378    31.129914   -312277.63 
   99710     39.56525    162652.22    72.205103    72.205104    36.024136          120    17303.081    16995.791   -34655.809   -414.53634   -2151.5062    -480.8706    72.205103    62.531455    36.024136   -118.97865   -312276.06 
   99720    39.714271    162648.49    72.204551    72.204551     36.02386          120    17300.784    16922.071   -34857.034   -508.23604   -2258.8677    -581.3214    72.204551    62.530976     36.02386   -211.39287   -312276.53 
   99730    39.948131    162644.01    72.203888    72.203889     36.02353          120    17379.415    16973.109   -34542.956   -509.11581   -2420.6437    -806.1008    72.203888    62.530402     36.02353   -63.477492   -312277.11 
   99740    40.065245     162639.3    72.203191    72.203192    36.023182          120    17480.259    17217.574    -34346.31   -289.39608   -2164.2127   -851.00286    72.203191    62.529799    36.023182    117.17424   -312277.34 
   99750    40.021539    162635.06    72.202564    72.202565    36.022869          120    17467.016    17591.089   -34341.538   -415.35263   -2124.9015   -1047.8486    72.202564    62.529255    36.022869    238.85581   -312277.08 
   99760    39.794872    162631.74    72.202073    72.202073    36.022624          120     17571.56    17546.834   -34283.549   -402.11006   -2257.5181   -1200.9662    72.202073     62.52883    36.022624    278.28165   -312276.56 
   99770    39.911418    162629.43    72.201731    72.201732    36.022454          120    17278.846    17399.165   -34334.762   -279.29198   -2366.1567   -844.69424    72.201731    62.528534    36.022454    114.41638   -312276.86 
   99780    40.023728    162627.56    72.201454    72.201455    36.022316          120    17073.594    17429.287   -34703.089   -363.37824   -2584.6743   -765.64325    72.201454    62.528294    36.022316   -66.736123    -312277.1 
   99790    39.962007    162625.53    72.201154    72.201154    36.022165          120    17357.214    17343.467   -34795.934     -424.368   -2622.3127    -505.2539    72.201154    62.528034    36.022165   -31.750739    -312276.9 
   99800     40.00911    162623.37    72.200835    72.200835    36.022006          120    17581.335    17374.783   -34808.893   -328.78561   -2472.8139   -363.17291    72.200835    62.527758    36.022006    49.075236   -312277.28 
   99810    40.344266    162621.51    72.200558    72.200559    36.021868          120     17799.11     17499.64   -34211.928   -500.19258    -2192.795   -277.51394    72.200558    62.527518    36.021868    362.27402   -312277.69 
   99820    40.273148    162620.96    72.200477    72.200478    36.021828          120    17988.209    17398.298   -33953.623   -449.60295   -2306.4453   -261.10095    72.200477    62.527448    36.021828    477.62812   -312277.36 
   99830    39.602818    162622.24    72.200667    72.200668    36.021923          120    17965.422    17807.816   -34225.147   -351.90684   -2289.5221   -779.60739    72.200667    62.527613    36.021923     516.0304   -312276.01 
   99840    39.994221     162625.5     72.20115     72.20115    36.022164          120    17842.395     17969.93   -34388.456   -586.30165   -2361.7664    -1000.155     72.20115    62.528031    36.022164    474.62301   -312276.76 
   99850    40.161218    162630.48    72.201886    72.201887    36.022531          120    17399.498     17578.93   -34599.802   -652.45397   -2572.2248   -880.93967    72.201886    62.528668    36.022531     126.2085   -312276.85 
   99860    40.372354    162635.99    72.202702    72.202702    36.022938          120    17136.006     17270.46   -34682.521   -558.44869   -2418.0763   -801.73499    72.202702    62.529375    36.022938   -92.018196   -312277.25 
   99870    39.846723    162641.24    72.203479     72.20348    36.023326          120    17592.618    17219.707    -34930.57   -409.74487   -2499.2765   -904.95571    72.203479    62.530048    36.023326   -39.415189   -312276.05 
   99880    40.140557    162646.28    72.204224    72.204224    36.023697          120    17639.875    17276.786   -35176.389   -531.41525   -2468.6524   -720.07689    72.204224    62.530693    36.023697    -86.57599   -312276.54 
   99890    40.271325     162650.9    72.204908    72.204908    36.024038          120    17006.525    17167.361   -35005.461     -568.808   -2633.0656   -666.59857    72.204908    62.531285    36.024038   -277.19184   -312276.73 
   99900    40.035932     162654.5     72.20544    72.205441    36.024304          120    16891.038    16973.336   -34863.965   -673.07339   -2530.5467   -607.18401     72.20544    62.531746    36.024304   -333.19681   -312276.19 
   99910    40.110785    162656.79    72.205779     72.20578    36.024473          120     16800.01     17117.07   -35008.219   -614.92989    -2264.671   -803.10215    72.205779     62.53204    36.024473   -363.71317    -312276.2 
   99920    40.288026    162657.73    72.205919     72.20592    36.024543          120    16927.727    17204.044   -34746.666   -474.34775   -2247.3528   -791.71052    72.205919    62.532161    36.024543   -204.96481   -312276.68 
   99930    40.471825     162657.9    72.205944    72.205945    36.024555          120    17158.256    17199.924   -34318.889   -370.27118   -2105.4522   -572.58832    72.205944    62.532182    36.024555    13.097079   -312276.68 
   99940    40.394156    162658.09    72.205971    72.205972    36.024569          120    17270.555     17547.17   -34430.115   -208.36036   -2131.5652   -493.15906    72.205971    62.532206    36.024569    129.20361   -312276.04 
   99950    40.525936    162658.66    72.206055    72.206056    36.024611          120    17239.461    17621.882   -34897.511   -273.40888   -2305.9588   -490.18701    72.206055    62.532279    36.024611   -12.055766   -312276.27 
   99960    40.428146    162659.19    72.206135    72.206135    36.024651          120    16843.555    17361.055   -34737.885   -433.31104   -2060.0451   -485.75892    72.206135    62.532348    36.024651   -177.75811   -312276.35 
   99970    40.255068    162659.05    72.206114    72.206115     36.02464          120    16757.961    17120.613   -34799.822   -556.80539   -1946.5208   -738.30191    72.206114     62.53233     36.02464   -307.08249   -312275.86 
   99980    40.165313    162657.83    72.205934    72.205935     36.02455          120    16867.748    17495.679   -34647.663   -645.89604   -2204.0847   -733.97001    72.205934    62.532174     36.02455   -94.745618   -312275.42 
   99990    40.020305     162656.3    72.205706    72.205707    36.024437          120    17215.381     17824.76   -34352.274   -360.06435   -2335.8923   -656.32315    72.205706    62.531977    36.024437    229.28888   -312275.16 
  100000    40.206214    162655.47    72.205583    72.205584    36.024376          120    17228.451    17552.473   -34342.061   -429.78242   -2544.8099   -673.57943    72.205583     62.53187    36.024376    146.28752   -312275.69 
Loop time of 34966.9 on 1 procs for 100000 steps with 14848 atoms

Performance: 0.247 ns/day, 97.130 hours/ns, 2.860 timesteps/s
100.0% CPU use with 1 MPI tasks x no OpenMP threads

MPI task timing breakdown:
Section |  min time  |  avg time  |  max time  |%varavg| %total
---------------------------------------------------------------
Pair    | 31463      | 31463      | 31463      |   0.0 | 89.98
Bond    | 0.055665   | 0.055665   | 0.055665   |   0.0 |  0.00
Kspace  | 1463.8     | 1463.8     | 1463.8     |   0.0 |  4.19
Neigh   | 1143.8     | 1143.8     | 1143.8     |   0.0 |  3.27
Comm    | 38.903     | 38.903     | 38.903     |   0.0 |  0.11
Output  | 1.3575     | 1.3575     | 1.3575     |   0.0 |  0.00
Modify  | 839.27     | 839.27     | 839.27     |   0.0 |  2.40
Other   |            | 16.74      |            |       |  0.05

Nlocal:    14848 ave 14848 max 14848 min
Histogram: 1 0 0 0 0 0 0 0 0 0
Nghost:    46893 ave 46893 max 46893 min
Histogram: 1 0 0 0 0 0 0 0 0 0
Neighs:    1.01165e+07 ave 1.01165e+07 max 1.01165e+07 min
Histogram: 1 0 0 0 0 0 0 0 0 0

Total # of neighbors = 10116541
Ave neighs/atom = 681.34
Ave special neighs/atom = 0
Neighbor list builds = 3405
Dangerous builds = 0
 
All done!
Total wall time: 9:49:08
