
  ___ ___ ___ _ _ _  
 |   |   |_  | | | | 
 | | | | | . | | | | 
 |__ |  _|___|_____|  1.4.0
 |___|_|             

User:   st_st159367@n0712
Date:   Sat Nov 10 10:27:27 2018
Arch:   x86_64
Pid:    32552
Python: 3.5.0
gpaw:   /opt/bwhpc/common/chem/gpaw/1.4.0/gpaw-1.4.0/lib/python3.5/site-packages/gpaw
_gpaw:  /opt/bwhpc/common/chem/gpaw/1.4.0/gpaw-1.4.0/bin/gpaw-python
ase:    /opt/bwhpc/common/chem/gpaw/1.4.0/ase-3.16.2/ase (version 3.16.2)
numpy:  /opt/bwhpc/common/numlib/python_numpy/1.14.0-python-3.5.0-mkl-2017/lib/python/numpy-1.14.0-py3.5-linux-x86_64.egg/numpy (version 1.14.0)
scipy:  /opt/bwhpc/common/numlib/python_scipy/1.1.0-python_numpy-1.14.0-python-3.5.0-mkl-2017/lib/python/scipy-1.1.0-py3.5-linux-x86_64.egg/scipy (version 1.1.0)
units:  Angstrom and eV
cores:  16

Input parameters:
  h: 0.2
  kpts: {density: 3.1}
  xc: PBE

System changes: positions, numbers, cell, pbc, initial_charges, initial_magmoms 

Initialize ...

Be-setup:
  name: Beryllium
  id: 05824862ae4eb59fd0e1af4fca8e65d4
  Z: 4
  valence: 2
  core: 2
  charge: 0.0
  file: /opt/bwhpc/common/chem/gpaw/1.4.0//gpaw-setups-0.9.20000/Be.PBE.gz
  cutoffs: 0.79(comp), 1.42(filt), 1.77(core), lmax=2
  valence states:
                energy  radius
    2s(2.00)    -5.610   0.794
    2p(0.00)    -2.018   0.794
    *s          21.602   0.794

  Using partial waves for Be as LCAO basis

Al-setup:
  name: Aluminium
  id: 0292cae29f5d6237e50f6abdd43a7bdd
  Z: 13
  valence: 3
  core: 10
  charge: 0.0
  file: /opt/bwhpc/common/chem/gpaw/1.4.0//gpaw-setups-0.9.20000/Al.PBE.gz
  cutoffs: 1.08(comp), 1.91(filt), 2.36(core), lmax=2
  valence states:
                energy  radius
    3s(2.00)    -7.753   1.085
    3p(1.00)    -2.712   1.085
    *s          19.459   1.085
    *p          24.499   1.085
    *d           0.000   1.085

  Using partial waves for Al as LCAO basis

Si-setup:
  name: Silicon
  id: ee77bee481871cc2cb65ac61239ccafa
  Z: 14
  valence: 4
  core: 10
  charge: 0.0
  file: /opt/bwhpc/common/chem/gpaw/1.4.0//gpaw-setups-0.9.20000/Si.PBE.gz
  cutoffs: 1.06(comp), 1.86(filt), 2.06(core), lmax=2
  valence states:
                energy  radius
    3s(2.00)   -10.812   1.058
    3p(2.00)    -4.081   1.058
    *s          16.399   1.058
    *p          23.130   1.058
    *d           0.000   1.058

  Using partial waves for Si as LCAO basis

O-setup:
  name: Oxygen
  id: 32ecd46bf208036f09c70b0ec9a88b78
  Z: 8
  valence: 6
  core: 2
  charge: 0.0
  file: /opt/bwhpc/common/chem/gpaw/1.4.0//gpaw-setups-0.9.20000/O.PBE.gz
  cutoffs: 0.67(comp), 1.17(filt), 0.83(core), lmax=2
  valence states:
                energy  radius
    2s(2.00)   -23.961   0.688
    2p(4.00)    -9.029   0.598
    *s           3.251   0.688
    *p          18.182   0.598
    *d           0.000   0.619

  Using partial waves for O as LCAO basis

Reference energy: -196909.616745

Spin-paired calculation

Occupation numbers:
  Fermi-Dirac: width=0.1000 eV

Convergence criteria:
  Maximum total energy change: 0.0005 eV / electron
  Maximum integral of absolute density change: 0.0001 electrons
  Maximum integral of absolute eigenstate change: 4e-08 eV^2
  Maximum number of iterations: 333

Symmetries present (total): 1

  ( 1  0  0)
  ( 0  1  0)
  ( 0  0  1)

18 k-points: 3 x 3 x 2 Monkhorst-Pack grid
9 k-points in the irreducible part of the Brillouin zone
       k-points in crystal coordinates                weights
   0:     0.00000000    0.00000000    0.25000000          2/18
   1:     0.00000000    0.33333333   -0.25000000          2/18
   2:     0.00000000    0.33333333    0.25000000          2/18
   3:     0.33333333   -0.33333333   -0.25000000          2/18
   4:     0.33333333   -0.33333333    0.25000000          2/18
   5:     0.33333333    0.00000000   -0.25000000          2/18
   6:     0.33333333    0.00000000    0.25000000          2/18
   7:     0.33333333    0.33333333   -0.25000000          2/18
   8:     0.33333333    0.33333333    0.25000000          2/18

Wave functions: Uniform real-space grid
  Kinetic energy operator: 8*3+1=25 point O(h^6) finite-difference Laplacian
  ScaLapack parameters: grid=1x1, blocksize=None 

Eigensolver
   Davidson(niter=1, smin=None, normalize=True) 

Densities:
  Coarse grid: 40*40*92 grid
  Fine grid: 80*80*184 grid
  Total Charge: 0.000000 

Density mixing:
  Method: separate
  Backend: pulay
  Linear mixing parameter: 0.05
  Mixing with 5 old densities
  Damping of long wave oscillations: 50 

Hamiltonian:
  XC and Coulomb potentials evaluated on a 80*80*184 grid
  Using the PBE Exchange-Correlation functional
  Interpolation: tri-quintic (5. degree polynomial)
  Poisson solver: Jacobi solver with 4 multi-grid levels
    Coarsest grid: 10 x 10 x 23 points
    Stencil: 8*3+1=25 point O(h^6) finite-difference Laplacian
    Max iterations: 1000
    Tolerance: 2.000000e-10 

Memory estimate:
  Process memory now: 75.23 MiB
  Calculator: 346.20 MiB
    Density: 6.84 MiB
      Arrays: 1.82 MiB
      Localized functions: 4.32 MiB
      Mixer: 0.70 MiB
    Hamiltonian: 2.87 MiB
      Arrays: 1.19 MiB
      XC: 0.00 MiB
      Poisson: 1.36 MiB
      vbar: 0.31 MiB
    Wavefunctions: 336.49 MiB
      Arrays psit_nG: 293.12 MiB
      Eigensolver: 41.49 MiB
      Projections: 1.41 MiB
      Projectors: 0.48 MiB

Total number of cores used: 16
Domain decomposition: 2 x 2 x 4

Number of atoms: 58
Number of atomic orbitals: 232
Number of bands in calculation: 232
Bands to converge: occupied states only
Number of valence electrons: 288

... initialized

Initializing position-dependent things.

Density initialized from atomic densities
Creating initial wave functions:
  232 bands from LCAO basis set

                                              
                                              
                                              
                                              
                    O                         
             O                                
                 AlO     O                    
           Be    O    Be       O              
              OSi    O  O  Al O               
           O           Oi  O  Si              
                 O       Be O                 
              Si O   Si          O            
              O  Al OO O      Si              
           BeO        Be    O                 
             O     O  Si O Al                 
            Si           BeSi  O              
                  Si    O                     
              O     O           Si            
                      Si       O              
                                              
                                              
                                              
                                              

Positions:
   0 Be     4.604000    0.000000    2.297000    ( 0.0000,  0.0000,  0.0000)
   1 Be     4.604000    0.000000    6.891000    ( 0.0000,  0.0000,  0.0000)
   2 Be    -2.302000    3.987181    2.297000    ( 0.0000,  0.0000,  0.0000)
   3 Be    -2.302000    3.987181    6.891000    ( 0.0000,  0.0000,  0.0000)
   4 Be     2.302000    3.987181    2.297000    ( 0.0000,  0.0000,  0.0000)
   5 Be     2.302000    3.987181    6.891000    ( 0.0000,  0.0000,  0.0000)
   6 Al     0.000000    5.316242    2.297000    ( 0.0000,  0.0000,  0.0000)
   7 Al     4.604000    2.658121    6.891000    ( 0.0000,  0.0000,  0.0000)
   8 Al     4.604000    2.658121    2.297000    ( 0.0000,  0.0000,  0.0000)
   9 Al     0.000000    5.316242    6.891000    ( 0.0000,  0.0000,  0.0000)
  10 Si     3.038655    0.921267    0.000000    ( 0.0000,  0.0000,  0.0000)
  11 Si     1.565346    7.053096    0.000000    ( 0.0000,  0.0000,  0.0000)
  12 Si     6.890833    2.170919    0.000000    ( 0.0000,  0.0000,  0.0000)
  13 Si    -2.286833    5.803443    0.000000    ( 0.0000,  0.0000,  0.0000)
  14 Si     3.882513    4.882177    0.000000    ( 0.0000,  0.0000,  0.0000)
  15 Si     0.721487    3.092186    0.000000    ( 0.0000,  0.0000,  0.0000)
  16 Si    -0.721487    3.092186    4.594000    ( 0.0000,  0.0000,  0.0000)
  17 Si     5.325487    4.882177    4.594000    ( 0.0000,  0.0000,  0.0000)
  18 Si    -1.565346    7.053096    4.594000    ( 0.0000,  0.0000,  0.0000)
  19 Si     6.169346    0.921267    4.594000    ( 0.0000,  0.0000,  0.0000)
  20 Si     2.286833    5.803443    4.594000    ( 0.0000,  0.0000,  0.0000)
  21 Si     2.317168    2.170919    4.594000    ( 0.0000,  0.0000,  0.0000)
  22 O      1.757425    1.873574    0.000000    ( 0.0000,  0.0000,  0.0000)
  23 O      2.846575    6.100788    0.000000    ( 0.0000,  0.0000,  0.0000)
  24 O      6.706724    0.585188    0.000000    ( 0.0000,  0.0000,  0.0000)
  25 O     -2.102724    7.389174    0.000000    ( 0.0000,  0.0000,  0.0000)
  26 O      5.347851    5.515600    0.000000    ( 0.0000,  0.0000,  0.0000)
  27 O     -0.743851    2.458762    0.000000    ( 0.0000,  0.0000,  0.0000)
  28 O      0.743850    2.458762    4.594000    ( 0.0000,  0.0000,  0.0000)
  29 O      3.860150    5.515600    4.594000    ( 0.0000,  0.0000,  0.0000)
  30 O     -2.846575    6.100788    4.594000    ( 0.0000,  0.0000,  0.0000)
  31 O      7.450575    1.873574    4.594000    ( 0.0000,  0.0000,  0.0000)
  32 O      2.102724    7.389174    4.594000    ( 0.0000,  0.0000,  0.0000)
  33 O      2.501276    0.585188    4.594000    ( 0.0000,  0.0000,  0.0000)
  34 O      3.926287    1.156973    1.343200    ( 0.0000,  0.0000,  0.0000)
  35 O      0.677713    6.817388    7.844800    ( 0.0000,  0.0000,  0.0000)
  36 O      6.242888    2.821778    1.343200    ( 0.0000,  0.0000,  0.0000)
  37 O     -1.638888    5.152585    7.844800    ( 0.0000,  0.0000,  0.0000)
  38 O      3.642825    3.995611    1.343200    ( 0.0000,  0.0000,  0.0000)
  39 O      0.961175    3.978751    7.844800    ( 0.0000,  0.0000,  0.0000)
  40 O      0.677713    6.817388    1.343200    ( 0.0000,  0.0000,  0.0000)
  41 O      3.926287    1.156973    7.844800    ( 0.0000,  0.0000,  0.0000)
  42 O     -1.638888    5.152585    1.343200    ( 0.0000,  0.0000,  0.0000)
  43 O      6.242888    2.821778    7.844800    ( 0.0000,  0.0000,  0.0000)
  44 O      0.961175    3.978751    1.343200    ( 0.0000,  0.0000,  0.0000)
  45 O      3.642825    3.995611    7.844800    ( 0.0000,  0.0000,  0.0000)
  46 O     -0.961175    3.978751    3.250800    ( 0.0000,  0.0000,  0.0000)
  47 O      5.565175    3.995611    5.937200    ( 0.0000,  0.0000,  0.0000)
  48 O     -0.677713    6.817388    3.250800    ( 0.0000,  0.0000,  0.0000)
  49 O      5.281713    1.156973    5.937200    ( 0.0000,  0.0000,  0.0000)
  50 O      1.638888    5.152585    3.250800    ( 0.0000,  0.0000,  0.0000)
  51 O      2.965112    2.821778    5.937200    ( 0.0000,  0.0000,  0.0000)
  52 O      5.565175    3.995611    3.250800    ( 0.0000,  0.0000,  0.0000)
  53 O     -0.961175    3.978751    5.937200    ( 0.0000,  0.0000,  0.0000)
  54 O      5.281713    1.156973    3.250800    ( 0.0000,  0.0000,  0.0000)
  55 O     -0.677713    6.817388    5.937200    ( 0.0000,  0.0000,  0.0000)
  56 O      2.965112    2.821778    3.250800    ( 0.0000,  0.0000,  0.0000)
  57 O      1.638888    5.152585    5.937200    ( 0.0000,  0.0000,  0.0000)

Unit cell:
           periodic     x           y           z      points  spacing
  1. axis:    yes    9.210000    0.000000    0.000000    40     0.1994
  2. axis:    yes   -4.605000    7.976094    0.000000    40     0.1994
  3. axis:    yes    0.000000    0.000000   18.380000    92     0.1998

  Lengths:   9.210000   9.210000  18.380000
  Angles:   90.000000  90.000000 120.000000

Effective grid spacing dv^(1/3) = 0.2093

                     log10-error:    total        iterations:
           time      wfs    density  energy       fermi  poisson
iter:   1  10:27:55  +1.80   +inf  -487.202780    2      52     
iter:   2  10:28:13  +0.88   +inf  -494.135283    1             
iter:   3  10:28:31  +0.18   +inf  -495.886781    1             
iter:   4  10:28:50  -0.04  -0.69  -462.055222    6      42     
iter:   5  10:29:09  +0.72  -0.74  -838.204166    38     53     
iter:   6  10:29:28  +0.82  -0.49  -755.879813    35     39     
iter:   7  10:29:46  +0.23  -0.54  -760.767431    3      18     
iter:   8  10:30:05  +0.19  -0.53  -772.438797    3      26     
iter:   9  10:30:24  +0.27  -0.51  -445.472738    36     52     
iter:  10  10:30:43  +0.14  -0.83  -451.631567    31     42     
iter:  11  10:31:02  -0.33  -0.84  -436.940257    36     36     
iter:  12  10:31:22  -0.01  -0.96  -433.133476    35     39     
iter:  13  10:31:41  -0.13  -1.09  -431.297591    3      28     
iter:  14  10:32:00  -0.51  -1.16  -423.713277    35     42     
iter:  15  10:32:19  -0.44  -1.27  -422.373166    3      35     
iter:  16  10:32:37  -0.41  -1.35  -421.758445    5      32     
iter:  17  10:32:56  -0.70  -1.49  -421.748687    4      30     
iter:  18  10:33:15  -1.27  -1.51  -421.698483    3      20     
iter:  19  10:33:34  -1.48  -1.52  -421.474938    3      23     
iter:  20  10:33:53  -1.41  -1.62  -421.415480    4      25     
iter:  21  10:34:11  -1.54  -1.67  -421.284098    4      29     
iter:  22  10:34:30  -1.44  -1.80  -421.367243    4      24     
iter:  23  10:34:49  -2.07  -1.80  -421.285916    3      24     
iter:  24  10:35:08  -2.08  -1.91  -421.301890    2      12     
iter:  25  10:35:27  -2.15  -1.96  -421.305704    3      16     
iter:  26  10:35:45  -2.17  -2.02  -421.300902    3      21     
iter:  27  10:36:04  -2.36  -2.06  -421.269990    3      13     
iter:  28  10:36:23  -2.55  -2.12  -421.241846    3      17     
iter:  29  10:36:41  -2.56  -2.16  -421.213868    3      19     
iter:  30  10:37:00  -2.51  -2.21  -421.194354    3      13     
iter:  31  10:37:18  -2.66  -2.30  -421.187015    3      13     
iter:  32  10:37:37  -2.72  -2.38  -421.181921    3      11     
iter:  33  10:37:55  -2.99  -2.42  -421.173934    3      14     
iter:  34  10:38:14  -2.77  -2.53  -421.176407    3      16     
iter:  35  10:38:33  -2.84  -2.65  -421.173869    3      13     
iter:  36  10:38:52  -3.57  -2.72  -421.170998    3      7      
iter:  37  10:39:10  -3.45  -2.79  -421.171171    3      5      
iter:  38  10:39:29  -3.99  -2.86  -421.172052    2      5      
iter:  39  10:39:47  -3.81  -2.90  -421.172445    2      5      
iter:  40  10:40:06  -3.76  -2.99  -421.174498    3      8      
iter:  41  10:40:25  -3.87  -3.18  -421.173661    2      6      
iter:  42  10:40:43  -4.23  -3.28  -421.174149    3      6      
iter:  43  10:41:02  -4.19  -3.35  -421.173803    3      4      
iter:  44  10:41:20  -4.65  -3.38  -421.172706    2      3      
iter:  45  10:41:38  -4.75  -3.44  -421.172135    2      3      
iter:  46  10:41:57  -4.81  -3.48  -421.170322    3      6      
iter:  47  10:42:15  -4.92  -3.42  -421.172781    3      4      
iter:  48  10:42:34  -5.23  -3.58  -421.172759    2      3      
iter:  49  10:42:53  -5.69  -3.65  -421.172038    2      3      
iter:  50  10:43:11  -5.68  -3.61  -421.171279    2      3      
iter:  51  10:43:30  -5.64  -3.62  -421.170057    3      4      
iter:  52  10:43:48  -5.64  -3.83  -421.170474    2      2      
iter:  53  10:44:06  -6.29  -3.86  -421.170913    2      3      
iter:  54  10:44:25  -6.08  -3.85  -421.170679    2      3      
iter:  55  10:44:43  -6.00  -3.82  -421.170515    2      2      
iter:  56  10:45:02  -6.62  -3.74  -421.170686    2      3      
iter:  57  10:45:20  -6.36  -3.66  -421.170701    2      2      
iter:  58  10:45:39  -6.71  -3.72  -421.170566    2      2      
iter:  59  10:45:57  -7.17  -3.63  -421.170643    2      1      
iter:  60  10:46:15  -7.42  -3.62  -421.171348    2      2      
iter:  61  10:46:34  -7.01  -3.54  -421.170610    2      3      
iter:  62  10:46:53  -6.78  -3.58  -421.169848    2      3      
iter:  63  10:47:11  -6.69  -3.72  -421.169931    2      2      
iter:  64  10:47:30  -6.81  -3.77  -421.169992    2      3      
iter:  65  10:47:48  -6.65  -3.91  -421.170977    2      3      
iter:  66  10:48:06  -6.39  -3.86  -421.170350    2      3      
iter:  67  10:48:25  -6.60  -4.09  -421.170526    2      2      
iter:  68  10:48:43  -7.19  -4.05  -421.171462    2      2      
iter:  69  10:49:02  -6.30  -4.08  -421.173113    2      3      
iter:  70  10:49:20  -6.45  -4.23  -421.173305    2      2      
iter:  71  10:49:38  -7.03  -4.31  -421.173580    2      1      
iter:  72  10:49:57  -7.00  -4.40  -421.172776    2      2      
iter:  73  10:50:16  -7.03  -4.60  -421.172069    2      2      
iter:  74  10:50:34  -7.72  -4.50  -421.172220    2      1      

Converged after 74 iterations.

Dipole moment: (1.112962, 1.929702, -78.617807) |e|*Ang

Energy contributions relative to reference atoms: (reference = -196909.616745)

Kinetic:       +582.775090
Potential:     -576.321743
External:        +0.000000
XC:            -458.679198
Entropy (-ST):   -1.022477
Local:          +31.564870
--------------------------
Free energy:   -421.683459
Extrapolated:  -421.172220

Fermi level: -1.57295

Warning: Showing only first 2 kpts
 Kpt  Band  Eigenvalues  Occupancy
  0   142     -1.68852    0.16901
  0   143     -1.55914    0.10345
  0   144     -1.55432    0.10079
  0   145     -1.47468    0.06052

  1   142     -1.72769    0.18323
  1   143     -1.62334    0.13852
  1   144     -1.53390    0.08969
  1   145     -1.52023    0.08248


Writing to out/3.1.gpw (mode='all')

Timing:                              incl.     excl.
-----------------------------------------------------------
Hamiltonian:                         0.967     0.000   0.0% |
 Atomic:                             0.204     0.111   0.0% |
  XC Correction:                     0.094     0.094   0.0% |
 Calculate atomic Hamiltonians:      0.007     0.007   0.0% |
 Communicate:                        0.000     0.000   0.0% |
 Hartree integrate/restrict:         0.002     0.002   0.0% |
 Initialize Hamiltonian:             0.000     0.000   0.0% |
 Poisson:                            0.706     0.706   0.1% |
 XC 3D grid:                         0.047     0.047   0.0% |
 vbar:                               0.000     0.000   0.0% |
LCAO initialization:                 4.883     0.216   0.0% |
 LCAO eigensolver:                   0.652     0.002   0.0% |
  Calculate projections:             0.037     0.037   0.0% |
  DenseAtomicCorrection:             0.028     0.028   0.0% |
  Distribute overlap matrix:         0.041     0.041   0.0% |
  Orbital Layouts:                   0.211     0.211   0.0% |
  Potential matrix:                  0.309     0.309   0.0% |
  Sum over cells:                    0.024     0.024   0.0% |
 LCAO to grid:                       3.148     3.148   0.2% |
 Set positions (LCAO WFS):           0.866     0.015   0.0% |
  Basic WFS set positions:           0.002     0.002   0.0% |
  Basis functions set positions:     0.000     0.000   0.0% |
  TCI: Calculate S, T, P:            0.850     0.850   0.1% |
SCF-cycle:                        1380.871     0.255   0.0% |
 Davidson:                        1337.292   332.647  23.6% |--------|
  Apply hamiltonian:                72.849    72.849   5.2% |-|
  Subspace diag:                   333.663     0.116   0.0% |
   calc_h_matrix:                  160.757    87.727   6.2% |-|
    Apply hamiltonian:              73.030    73.030   5.2% |-|
   diagonalize:                     11.853    11.853   0.8% |
   rotate_psi:                     160.938   160.938  11.4% |----|
  calc. matrices:                  361.276   288.430  20.5% |-------|
   Apply hamiltonian:               72.846    72.846   5.2% |-|
  diagonalize:                      74.813    74.813   5.3% |-|
  rotate_psi:                      162.045   162.045  11.5% |----|
 Density:                            8.647     0.002   0.0% |
  Atomic density matrices:           0.862     0.862   0.1% |
  Mix:                               0.585     0.585   0.0% |
  Multipole moments:                 0.030     0.030   0.0% |
  Pseudo density:                    7.167     7.165   0.5% |
   Symmetrize density:               0.002     0.002   0.0% |
 Hamiltonian:                       31.649     0.007   0.0% |
  Atomic:                           14.276     7.631   0.5% |
   XC Correction:                    6.645     6.645   0.5% |
  Calculate atomic Hamiltonians:     0.340     0.340   0.0% |
  Communicate:                       0.001     0.001   0.0% |
  Hartree integrate/restrict:        0.113     0.113   0.0% |
  Poisson:                          13.613    13.613   1.0% |
  XC 3D grid:                        3.275     3.275   0.2% |
  vbar:                              0.025     0.025   0.0% |
 Orthonormalize:                     3.028     0.002   0.0% |
  calc_s_matrix:                     0.572     0.572   0.0% |
  inverse-cholesky:                  0.052     0.052   0.0% |
  projections:                       1.255     1.255   0.1% |
  rotate_psi_s:                      1.148     1.148   0.1% |
Set symmetry:                        0.001     0.001   0.0% |
Other:                              23.578    23.578   1.7% ||
-----------------------------------------------------------
Total:                                      1410.300 100.0%

Memory usage: 577.21 MiB
Date: Sat Nov 10 10:50:57 2018
